# vtk DataFile Version 4.2
vtk output
ASCII
DATASET UNSTRUCTURED_GRID
POINTS 15 double
6.1232339957e-17 0 -1 3.7493994567e-33 6.1232339957e-17 -1 -6.1232339957e-17 7.4987989133e-33 -1 
-1.124819837e-32 -6.1232339957e-17 -1 6.1232339957e-17 -1.4997597827e-32 -1 1 0 0 
6.1232339957e-17 1 0 -1 1.2246467991e-16 0 -1.8369701987e-16 -1 0 
1 -2.4492935983e-16 0 6.1232339957e-17 0 1 3.7493994567e-33 6.1232339957e-17 1 
-6.1232339957e-17 7.4987989133e-33 1 -1.124819837e-32 -6.1232339957e-17 1 6.1232339957e-17 -1.4997597827e-32 1 

CELLS 8 40
4 0 1 6 5 
4 1 2 7 6 
4 2 3 8 7 
4 3 4 9 8 
4 5 6 11 10 
4 6 7 12 11 
4 7 8 13 12 
4 8 9 14 13 

CELL_TYPES 8
9
9
9
9
9
9
9
9

CELL_DATA 8
SCALARS cell_areas double
LOOKUP_TABLE default
1.7320508076 1.7320508076 1.7320508076 1.7320508076 1.7320508076 1.7320508076 1.7320508076 1.7320508076 
