# vtk DataFile Version 4.0
vtk output
ASCII
DATASET UNSTRUCTURED_GRID
POINTS 1280 float
0.01 0 0 0.209 0 0 0.204984 0.0407739 0 
0.00980785 0.0019509 0 0.00980785 0.0019509 0 0.204984 0.0407739 0 
0.193091 0.0799808 0 0.0092388 0.00382683 0 0.0092388 0.00382683 0 
0.193091 0.0799808 0 0.173777 0.116114 0 0.0083147 0.0055557 0 
0.0083147 0.0055557 0 0.173777 0.116114 0 0.147785 0.147785 0 
0.00707107 0.00707107 0 0.00707107 0.00707107 0 0.147785 0.147785 0 
0.116114 0.173777 0 0.0055557 0.0083147 0 0.0055557 0.0083147 0 
0.116114 0.173777 0 0.0799808 0.193091 0 0.00382683 0.0092388 0 
0.00382683 0.0092388 0 0.0799808 0.193091 0 0.0407739 0.204984 0 
0.0019509 0.00980785 0 0.0019509 0.00980785 0 0.0407739 0.204984 0 
1.27976e-17 0.209 0 6.12323e-19 0.01 0 6.12323e-19 0.01 0 
1.27976e-17 0.209 0 -0.0407739 0.204984 0 -0.0019509 0.00980785 0 
-0.0019509 0.00980785 0 -0.0407739 0.204984 0 -0.0799808 0.193091 0 
-0.00382683 0.0092388 0 -0.00382683 0.0092388 0 -0.0799808 0.193091 0 
-0.116114 0.173777 0 -0.0055557 0.0083147 0 -0.0055557 0.0083147 0 
-0.116114 0.173777 0 -0.147785 0.147785 0 -0.00707107 0.00707107 0 
-0.00707107 0.00707107 0 -0.147785 0.147785 0 -0.173777 0.116114 0 
-0.0083147 0.0055557 0 -0.0083147 0.0055557 0 -0.173777 0.116114 0 
-0.193091 0.0799808 0 -0.0092388 0.00382683 0 -0.0092388 0.00382683 0 
-0.193091 0.0799808 0 -0.204984 0.0407739 0 -0.00980785 0.0019509 0 
-0.00980785 0.0019509 0 -0.204984 0.0407739 0 -0.209 2.55951e-17 0 
-0.01 1.22465e-18 0 -0.01 1.22465e-18 0 -0.209 2.55951e-17 0 
-0.204984 -0.0407739 0 -0.00980785 -0.0019509 0 -0.00980785 -0.0019509 0 
-0.204984 -0.0407739 0 -0.193091 -0.0799808 0 -0.0092388 -0.00382683 0 
-0.0092388 -0.00382683 0 -0.193091 -0.0799808 0 -0.173777 -0.116114 0 
-0.0083147 -0.0055557 0 -0.0083147 -0.0055557 0 -0.173777 -0.116114 0 
-0.147785 -0.147785 0 -0.00707107 -0.00707107 0 -0.00707107 -0.00707107 0 
-0.147785 -0.147785 0 -0.116114 -0.173777 0 -0.0055557 -0.0083147 0 
-0.0055557 -0.0083147 0 -0.116114 -0.173777 0 -0.0799808 -0.193091 0 
-0.00382683 -0.0092388 0 -0.00382683 -0.0092388 0 -0.0799808 -0.193091 0 
-0.0407739 -0.204984 0 -0.0019509 -0.00980785 0 -0.0019509 -0.00980785 0 
-0.0407739 -0.204984 0 -3.83927e-17 -0.209 0 -1.83697e-18 -0.01 0 
-1.83697e-18 -0.01 0 -3.83927e-17 -0.209 0 0.0407739 -0.204984 0 
0.0019509 -0.00980785 0 0.0019509 -0.00980785 0 0.0407739 -0.204984 0 
0.0799808 -0.193091 0 0.00382683 -0.0092388 0 0.00382683 -0.0092388 0 
0.0799808 -0.193091 0 0.116114 -0.173777 0 0.0055557 -0.0083147 0 
0.0055557 -0.0083147 0 0.116114 -0.173777 0 0.147785 -0.147785 0 
0.00707107 -0.00707107 0 0.00707107 -0.00707107 0 0.147785 -0.147785 0 
0.173777 -0.116114 0 0.0083147 -0.0055557 0 0.0083147 -0.0055557 0 
0.173777 -0.116114 0 0.193091 -0.0799808 0 0.0092388 -0.00382683 0 
0.0092388 -0.00382683 0 0.193091 -0.0799808 0 0.204984 -0.0407739 0 
0.00980785 -0.0019509 0 0.00980785 -0.0019509 0 0.204984 -0.0407739 0 
0.209 -5.11902e-17 0 0.01 -2.44929e-18 0 0.209 0 0 
0.408 0 0 0.40016 0.0795969 0 0.204984 0.0407739 0 
0.204984 0.0407739 0 0.40016 0.0795969 0 0.376943 0.156135 0 
0.193091 0.0799808 0 0.193091 0.0799808 0 0.376943 0.156135 0 
0.33924 0.226673 0 0.173777 0.116114 0 0.173777 0.116114 0 
0.33924 0.226673 0 0.2885 0.2885 0 0.147785 0.147785 0 
0.147785 0.147785 0 0.2885 0.2885 0 0.226673 0.33924 0 
0.116114 0.173777 0 0.116114 0.173777 0 0.226673 0.33924 0 
0.156135 0.376943 0 0.0799808 0.193091 0 0.0799808 0.193091 0 
0.156135 0.376943 0 0.0795969 0.40016 0 0.0407739 0.204984 0 
0.0407739 0.204984 0 0.0795969 0.40016 0 2.49828e-17 0.408 0 
1.27976e-17 0.209 0 1.27976e-17 0.209 0 2.49828e-17 0.408 0 
-0.0795969 0.40016 0 -0.0407739 0.204984 0 -0.0407739 0.204984 0 
-0.0795969 0.40016 0 -0.156135 0.376943 0 -0.0799808 0.193091 0 
-0.0799808 0.193091 0 -0.156135 0.376943 0 -0.226673 0.33924 0 
-0.116114 0.173777 0 -0.116114 0.173777 0 -0.226673 0.33924 0 
-0.2885 0.2885 0 -0.147785 0.147785 0 -0.147785 0.147785 0 
-0.2885 0.2885 0 -0.33924 0.226673 0 -0.173777 0.116114 0 
-0.173777 0.116114 0 -0.33924 0.226673 0 -0.376943 0.156135 0 
-0.193091 0.0799808 0 -0.193091 0.0799808 0 -0.376943 0.156135 0 
-0.40016 0.0795969 0 -0.204984 0.0407739 0 -0.204984 0.0407739 0 
-0.40016 0.0795969 0 -0.408 4.99656e-17 0 -0.209 2.55951e-17 0 
-0.209 2.55951e-17 0 -0.408 4.99656e-17 0 -0.40016 -0.0795969 0 
-0.204984 -0.0407739 0 -0.204984 -0.0407739 0 -0.40016 -0.0795969 0 
-0.376943 -0.156135 0 -0.193091 -0.0799808 0 -0.193091 -0.0799808 0 
-0.376943 -0.156135 0 -0.33924 -0.226673 0 -0.173777 -0.116114 0 
-0.173777 -0.116114 0 -0.33924 -0.226673 0 -0.2885 -0.2885 0 
-0.147785 -0.147785 0 -0.147785 -0.147785 0 -0.2885 -0.2885 0 
-0.226673 -0.33924 0 -0.116114 -0.173777 0 -0.116114 -0.173777 0 
-0.226673 -0.33924 0 -0.156135 -0.376943 0 -0.0799808 -0.193091 0 
-0.0799808 -0.193091 0 -0.156135 -0.376943 0 -0.0795969 -0.40016 0 
-0.0407739 -0.204984 0 -0.0407739 -0.204984 0 -0.0795969 -0.40016 0 
-7.49484e-17 -0.408 0 -3.83927e-17 -0.209 0 -3.83927e-17 -0.209 0 
-7.49484e-17 -0.408 0 0.0795969 -0.40016 0 0.0407739 -0.204984 0 
0.0407739 -0.204984 0 0.0795969 -0.40016 0 0.156135 -0.376943 0 
0.0799808 -0.193091 0 0.0799808 -0.193091 0 0.156135 -0.376943 0 
0.226673 -0.33924 0 0.116114 -0.173777 0 0.116114 -0.173777 0 
0.226673 -0.33924 0 0.2885 -0.2885 0 0.147785 -0.147785 0 
0.147785 -0.147785 0 0.2885 -0.2885 0 0.33924 -0.226673 0 
0.173777 -0.116114 0 0.173777 -0.116114 0 0.33924 -0.226673 0 
0.376943 -0.156135 0 0.193091 -0.0799808 0 0.193091 -0.0799808 0 
0.376943 -0.156135 0 0.40016 -0.0795969 0 0.204984 -0.0407739 0 
0.204984 -0.0407739 0 0.40016 -0.0795969 0 0.408 -9.99312e-17 0 
0.209 -5.11902e-17 0 0.408 0 0 0.607 0 0 
0.595337 0.11842 0 0.40016 0.0795969 0 0.40016 0.0795969 0 
0.595337 0.11842 0 0.560795 0.232289 0 0.376943 0.156135 0 
0.376943 0.156135 0 0.560795 0.232289 0 0.504702 0.337231 0 
0.33924 0.226673 0 0.33924 0.226673 0 0.504702 0.337231 0 
0.429214 0.429214 0 0.2885 0.2885 0 0.2885 0.2885 0 
0.429214 0.429214 0 0.337231 0.504702 0 0.226673 0.33924 0 
0.226673 0.33924 0 0.337231 0.504702 0 0.232289 0.560795 0 
0.156135 0.376943 0 0.156135 0.376943 0 0.232289 0.560795 0 
0.11842 0.595337 0 0.0795969 0.40016 0 0.0795969 0.40016 0 
0.11842 0.595337 0 3.7168e-17 0.607 0 2.49828e-17 0.408 0 
2.49828e-17 0.408 0 3.7168e-17 0.607 0 -0.11842 0.595337 0 
-0.0795969 0.40016 0 -0.0795969 0.40016 0 -0.11842 0.595337 0 
-0.232289 0.560795 0 -0.156135 0.376943 0 -0.156135 0.376943 0 
-0.232289 0.560795 0 -0.337231 0.504702 0 -0.226673 0.33924 0 
-0.226673 0.33924 0 -0.337231 0.504702 0 -0.429214 0.429214 0 
-0.2885 0.2885 0 -0.2885 0.2885 0 -0.429214 0.429214 0 
-0.504702 0.337231 0 -0.33924 0.226673 0 -0.33924 0.226673 0 
-0.504702 0.337231 0 -0.560795 0.232289 0 -0.376943 0.156135 0 
-0.376943 0.156135 0 -0.560795 0.232289 0 -0.595337 0.11842 0 
-0.40016 0.0795969 0 -0.40016 0.0795969 0 -0.595337 0.11842 0 
-0.607 7.43361e-17 0 -0.408 4.99656e-17 0 -0.408 4.99656e-17 0 
-0.607 7.43361e-17 0 -0.595337 -0.11842 0 -0.40016 -0.0795969 0 
-0.40016 -0.0795969 0 -0.595337 -0.11842 0 -0.560795 -0.232289 0 
-0.376943 -0.156135 0 -0.376943 -0.156135 0 -0.560795 -0.232289 0 
-0.504702 -0.337231 0 -0.33924 -0.226673 0 -0.33924 -0.226673 0 
-0.504702 -0.337231 0 -0.429214 -0.429214 0 -0.2885 -0.2885 0 
-0.2885 -0.2885 0 -0.429214 -0.429214 0 -0.337231 -0.504702 0 
-0.226673 -0.33924 0 -0.226673 -0.33924 0 -0.337231 -0.504702 0 
-0.232289 -0.560795 0 -0.156135 -0.376943 0 -0.156135 -0.376943 0 
-0.232289 -0.560795 0 -0.11842 -0.595337 0 -0.0795969 -0.40016 0 
-0.0795969 -0.40016 0 -0.11842 -0.595337 0 -1.11504e-16 -0.607 0 
-7.49484e-17 -0.408 0 -7.49484e-17 -0.408 0 -1.11504e-16 -0.607 0 
0.11842 -0.595337 0 0.0795969 -0.40016 0 0.0795969 -0.40016 0 
0.11842 -0.595337 0 0.232289 -0.560795 0 0.156135 -0.376943 0 
0.156135 -0.376943 0 0.232289 -0.560795 0 0.337231 -0.504702 0 
0.226673 -0.33924 0 0.226673 -0.33924 0 0.337231 -0.504702 0 
0.429214 -0.429214 0 0.2885 -0.2885 0 0.2885 -0.2885 0 
0.429214 -0.429214 0 0.504702 -0.337231 0 0.33924 -0.226673 0 
0.33924 -0.226673 0 0.504702 -0.337231 0 0.560795 -0.232289 0 
0.376943 -0.156135 0 0.376943 -0.156135 0 0.560795 -0.232289 0 
0.595337 -0.11842 0 0.40016 -0.0795969 0 0.40016 -0.0795969 0 
0.595337 -0.11842 0 0.607 -1.48672e-16 0 0.408 -9.99312e-17 0 
0.607 0 0 0.806 0 0 0.790513 0.157243 0 
0.595337 0.11842 0 0.595337 0.11842 0 0.790513 0.157243 0 
0.744647 0.308443 0 0.560795 0.232289 0 0.560795 0.232289 0 
0.744647 0.308443 0 0.670165 0.44779 0 0.504702 0.337231 0 
0.504702 0.337231 0 0.670165 0.44779 0 0.569928 0.569928 0 
0.429214 0.429214 0 0.429214 0.429214 0 0.569928 0.569928 0 
0.44779 0.670165 0 0.337231 0.504702 0 0.337231 0.504702 0 
0.44779 0.670165 0 0.308443 0.744647 0 0.232289 0.560795 0 
0.232289 0.560795 0 0.308443 0.744647 0 0.157243 0.790513 0 
0.11842 0.595337 0 0.11842 0.595337 0 0.157243 0.790513 0 
4.93533e-17 0.806 0 3.7168e-17 0.607 0 3.7168e-17 0.607 0 
4.93533e-17 0.806 0 -0.157243 0.790513 0 -0.11842 0.595337 0 
-0.11842 0.595337 0 -0.157243 0.790513 0 -0.308443 0.744647 0 
-0.232289 0.560795 0 -0.232289 0.560795 0 -0.308443 0.744647 0 
-0.44779 0.670165 0 -0.337231 0.504702 0 -0.337231 0.504702 0 
-0.44779 0.670165 0 -0.569928 0.569928 0 -0.429214 0.429214 0 
-0.429214 0.429214 0 -0.569928 0.569928 0 -0.670165 0.44779 0 
-0.504702 0.337231 0 -0.504702 0.337231 0 -0.670165 0.44779 0 
-0.744647 0.308443 0 -0.560795 0.232289 0 -0.560795 0.232289 0 
-0.744647 0.308443 0 -0.790513 0.157243 0 -0.595337 0.11842 0 
-0.595337 0.11842 0 -0.790513 0.157243 0 -0.806 9.87065e-17 0 
-0.607 7.43361e-17 0 -0.607 7.43361e-17 0 -0.806 9.87065e-17 0 
-0.790513 -0.157243 0 -0.595337 -0.11842 0 -0.595337 -0.11842 0 
-0.790513 -0.157243 0 -0.744647 -0.308443 0 -0.560795 -0.232289 0 
-0.560795 -0.232289 0 -0.744647 -0.308443 0 -0.670165 -0.44779 0 
-0.504702 -0.337231 0 -0.504702 -0.337231 0 -0.670165 -0.44779 0 
-0.569928 -0.569928 0 -0.429214 -0.429214 0 -0.429214 -0.429214 0 
[...]
CELL_DATA 320
FIELD FieldData 1
velocity 3 320 double
-4.81346 51.8886 0 -14.838 49.8939 0 -24.2807 45.9818 0 
-32.7786 40.3029 0 -40.0054 33.0754 0 -45.6833 24.5771 0 
-49.5943 15.1344 0 -51.5881 5.11025 0 -51.5881 -5.11025 0 
-49.5943 -15.1344 0 -45.6833 -24.5771 0 -40.0054 -33.0754 0 
-32.7786 -40.3029 0 -24.2807 -45.9818 0 -14.838 -49.8939 0 
-4.81346 -51.8886 0 5.40777 -51.8894 0 15.4329 -49.896 0 
24.8766 -45.985 0 33.376 -40.3067 0 40.6042 -33.0792 0 
46.2835 -24.5803 0 50.1956 -15.1365 0 52.1899 -5.11099 0 
52.1899 5.11099 0 50.1956 15.1365 0 46.2835 24.5803 0 
40.6042 33.0792 0 33.376 40.3067 0 24.8766 45.985 0 
15.4329 49.896 0 5.40777 51.8894 0 -0.0557476 3.5827 0 
-0.747704 3.44431 0 -1.39925 3.17368 0 -1.98541 2.78127 0 
-2.48374 2.2822 0 -2.87518 1.69563 0 -3.14475 1.04408 0 
-3.28216 0.352528 0 -3.28216 -0.352528 0 -3.14475 -1.04408 0 
-2.87518 -1.69563 0 -2.48374 -2.2822 0 -1.98541 -2.78127 0 
-1.39925 -3.17368 0 -0.747704 -3.44431 0 -0.0557476 -3.5827 0 
0.650057 -3.58345 0 1.34259 -3.44645 0 1.99519 -3.17688 0 
2.58274 -2.78504 0 3.08257 -2.28596 0 3.47539 -1.69882 0 
3.74602 -1.04621 0 3.884 -0.353277 0 3.884 0.353277 0 
3.74602 1.04621 0 3.47539 1.69882 0 3.08257 2.28596 0 
2.58274 2.78504 0 1.99519 3.17688 0 1.34259 3.44645 0 
0.650057 3.58345 0 0.0972638 2.02915 0 -0.294549 1.95047 0 
-0.66337 1.79695 0 -0.995084 1.57455 0 -1.27702 1.29186 0 
-1.49844 0.959744 0 -1.6509 0.590924 0 -1.7286 0.199516 0 
-1.7286 -0.199516 0 -1.6509 -0.590924 0 -1.49844 -0.959744 0 
-1.27702 -1.29186 0 -0.995084 -1.57455 0 -0.66337 -1.79695 0 
-0.294549 -1.95047 0 0.0972638 -2.02915 0 0.497046 -2.0299 0 
0.889432 -1.9526 0 1.25931 -1.80014 0 1.59241 -1.57832 0 
1.87585 -1.29563 0 2.09865 -0.962938 0 2.25217 -0.593058 0 
2.33045 -0.200265 0 2.33045 0.200265 0 2.25217 0.593058 0 
2.09865 0.962938 0 1.87585 1.29563 0 1.59241 1.57832 0 
1.25931 1.80014 0 0.889432 1.9526 0 0.497046 2.0299 0 
0.156293 1.42982 0 -0.119732 1.37417 0 -0.379481 1.26583 0 
-0.613034 1.10902 0 -0.811494 0.909814 0 -0.967319 0.675856 0 
-1.0746 0.416106 0 -1.12928 0.140487 0 -1.12928 -0.140487 0 
-1.0746 -0.416106 0 -0.967319 -0.675856 0 -0.811494 -0.909814 0 
-0.613034 -1.10902 0 -0.379481 -1.26583 0 -0.119732 -1.37417 0 
0.156293 -1.42982 0 0.438017 -1.43057 0 0.714614 -1.3763 0 
0.975423 -1.26902 0 1.21036 -1.11279 0 1.41032 -0.913581 0 
1.56753 -0.679049 0 1.67587 -0.41824 0 1.73112 -0.141237 0 
1.73112 0.141237 0 1.67587 0.41824 0 1.56753 0.679049 0 
1.41032 0.913581 0 1.21036 1.11279 0 0.975423 1.26902 0 
0.714614 1.3763 0 0.438017 1.43057 0 0.188113 1.10675 0 
-0.0254936 1.06351 0 -0.226447 0.979521 0 -0.407085 0.858073 0 
-0.560544 0.703865 0 -0.681012 0.522821 0 -0.763939 0.321868 0 
-0.806199 0.108667 0 -0.806199 -0.108667 0 -0.763939 -0.321868 0 
-0.681012 -0.522821 0 -0.560544 -0.703865 0 -0.407085 -0.858073 0 
-0.226447 -0.979521 0 -0.0254936 -1.06351 0 0.188113 -1.10675 0 
0.406197 -1.10749 0 0.620376 -1.06564 0 0.822389 -0.982714 0 
1.00441 -0.86184 0 1.15937 -0.707631 0 1.28122 -0.526015 0 
1.36521 -0.324002 0 1.40804 -0.109416 0 1.40804 0.109416 0 
1.36521 0.324002 0 1.28122 0.526015 0 1.15937 0.707631 0 
1.00441 0.86184 0 0.822389 0.982714 0 0.620376 1.06564 0 
0.406197 1.10749 0 0.208116 0.903651 0 0.033747 0.868217 0 
-0.130245 0.79954 0 -0.277619 0.700319 0 -0.40279 0.574399 0 
-0.501032 0.42662 0 -0.568649 0.262628 0 -0.603104 0.0886641 0 
-0.603104 -0.0886641 0 -0.568649 -0.262628 0 -0.501032 -0.42662 0 
-0.40279 -0.574399 0 -0.277619 -0.700319 0 -0.130245 -0.79954 0 
0.033747 -0.868217 0 0.208116 -0.903651 0 0.386193 -0.9044 0 
0.561136 -0.870351 0 0.726188 -0.802733 0 0.874946 -0.704086 0 
1.00161 -0.578166 0 1.10124 -0.429813 0 1.16992 -0.264761 0 
1.20495 -0.0894133 0 1.20495 0.0894133 0 1.16992 0.264761 0 
1.10124 0.429813 0 1.00161 0.578166 0 0.874946 0.704086 0 
0.726188 0.802733 0 0.561136 0.870351 0 0.386193 0.9044 0 
0.221883 0.763873 0 0.0745185 0.733812 0 -0.064036 0.675671 0 
-0.188516 0.591747 0 -0.294217 0.485296 0 -0.377163 0.360411 0 
-0.434244 0.221856 0 -0.463327 0.0748972 0 -0.463327 -0.0748972 0 
-0.434244 -0.221856 0 -0.377163 -0.360411 0 -0.294217 -0.485296 0 
-0.188516 -0.591747 0 -0.064036 -0.675671 0 0.0745185 -0.733812 0 
0.221883 -0.763873 0 0.372427 -0.764623 0 0.520364 -0.735945 0 
0.659978 -0.678864 0 0.785843 -0.595513 0 0.893043 -0.489063 0 
0.977373 -0.363604 0 1.03551 -0.22399 0 1.06517 -0.0756465 0 
1.06517 0.0756465 0 1.03551 0.22399 0 0.977373 0.363604 0 
0.893043 0.489063 0 0.785843 0.595513 0 0.659978 0.678864 0 
0.520364 0.735945 0 0.372427 0.764623 0 0.231947 0.661692 0 
0.104324 0.635557 0 -0.0156349 0.585119 0 -0.123379 0.512377 0 
-0.214848 0.42016 0 -0.286611 0.31201 0 -0.335989 0.192051 0 
-0.361145 0.0648333 0 -0.361145 -0.0648333 0 -0.335989 -0.192051 0 
-0.286611 -0.31201 0 -0.214848 -0.42016 0 -0.123379 -0.512377 0 
-0.0156349 -0.585119 0 0.104324 -0.635557 0 0.231947 -0.661692 0 
0.362363 -0.662441 0 0.490559 -0.637691 0 0.611577 -0.588312 0 
0.720706 -0.516144 0 0.813673 -0.423926 0 0.886821 -0.315203 0 
0.937258 -0.194185 0 0.962988 -0.0655825 0 0.962988 0.0655825 0 
0.937258 0.194185 0 0.886821 0.315203 0 0.813673 0.423926 0 
0.720706 0.516144 0 0.611577 0.588312 0 0.490559 0.637691 0 
0.362363 0.662441 0 0.239629 0.583693 0 0.127075 0.560555 0 
0.0213114 0.515997 0 -0.073658 0.451792 0 -0.154262 0.370438 0 
-0.217489 0.275063 0 -0.260988 0.169299 0 -0.283146 0.057151 0 
-0.283146 -0.057151 0 -0.260988 -0.169299 0 -0.217489 -0.275063 0 
-0.154262 -0.370438 0 -0.073658 -0.451792 0 0.0213114 -0.515997 0 
0.127075 -0.560555 0 0.239629 -0.583693 0 0.35468 -0.584442 0 
0.467808 -0.562689 0 0.574631 -0.519191 0 0.670985 -0.455558 0 
0.753088 -0.374205 0 0.817699 -0.278256 0 0.862257 -0.171433 0 
0.884989 -0.0579003 0 0.884989 0.0579003 0 0.862257 0.171433 0 
0.817699 0.278256 0 0.753088 0.374205 0 0.670985 0.455558 0 
0.574631 0.519191 0 0.467808 0.562689 0 0.35468 0.584442 0 
0.245688 0.52218 0 0.145018 0.501406 0 0.0504488 0.461485 0 
-0.0344457 0.404011 0 -0.106482 0.331226 0 -0.162977 0.245926 0 
-0.201838 0.151357 0 -0.221633 0.0510925 0 -0.221633 -0.0510925 0 
-0.201838 -0.151357 0 -0.162977 -0.245926 0 -0.106482 -0.331226 0 
-0.0344457 -0.404011 0 0.0504488 -0.461485 0 0.145018 -0.501406 0 
0.245688 -0.52218 0 0.348622 -0.522929 0 0.449865 -0.50354 0 
0.545494 -0.464678 0 0.631772 -0.407778 0 0.705307 -0.334992 0 
0.763187 -0.249119 0 0.803108 -0.15349 0 0.823476 -0.0518417 0 
0.823476 0.0518417 0 0.803108 0.15349 0 0.763187 0.249119 0 
0.705307 0.334992 0 0.631772 0.407778 0 0.545494 0.464678 0 
0.449865 0.50354 0 0.348622 0.522929 0 
POINT_DATA 1280
FIELD FieldData 1
potential 1 1280 double
0.003 0.0627 0.257845 0.199292 0.199292 0.257845 0.450626 0.395471 0.395471 
0.450626 0.641182 0.591543 0.591543 0.641182 0.829734 0.787519 0.787519 0.829734 
1.01658 0.983414 0.983414 1.01658 1.20209 1.17925 1.17925 1.20209 1.38668 
1.37503 1.37503 1.38668 1.5708 1.5708 1.5708 1.5708 1.75491 1.76656 
1.76656 1.75491 1.9395 1.96235 1.96235 1.9395 2.12501 2.15818 2.15818 
2.12501 2.31186 2.35407 2.35407 2.31186 2.50041 2.55005 2.55005 2.50041 
2.69097 2.74612 2.74612 2.69097 2.88375 2.9423 2.9423 2.88375 3.07889 
3.13859 3.13859 3.07889 3.27645 3.335 3.335 3.27645 3.47636 3.53152 
3.53152 3.47636 3.67851 3.72815 3.72815 3.67851 3.88266 3.92487 3.92487 
3.88266 4.08851 4.12167 4.12167 4.08851 4.2957 4.31854 4.31854 4.2957 
4.50381 4.51545 4.51545 4.50381 4.71239 4.71239 4.71239 4.71239 4.92097 
4.90932 4.90932 4.92097 5.12908 5.10624 5.10624 5.12908 5.33627 5.3031 
5.3031 5.33627 5.54212 5.49991 5.49991 5.54212 5.74627 5.69663 5.69663 
5.74627 5.94841 5.89326 5.89326 5.94841 6.14833 6.08978 6.08978 6.14833 
6.34589 6.28619 0.0627 0.1224 0.316398 0.257845 0.257845 0.316398 0.505782 
0.450626 0.450626 0.505782 0.690821 0.641182 0.641182 0.690821 0.871948 0.829734 
0.829734 0.871948 1.04975 1.01658 1.01658 1.04975 1.22494 1.20209 1.20209 
1.22494 1.39833 1.38668 1.38668 1.39833 1.5708 1.5708 1.5708 1.5708 
1.74327 1.75491 1.75491 1.74327 1.91665 1.9395 1.9395 1.91665 2.09184 
2.12501 2.12501 2.09184 2.26964 2.31186 2.31186 2.26964 2.45077 2.50041 
2.50041 2.45077 2.63581 2.69097 2.69097 2.63581 2.82519 2.88375 2.88375 
2.82519 3.01919 3.07889 3.07889 3.01919 3.21789 3.27645 3.27645 3.21789 
3.42121 3.47636 3.47636 3.42121 3.62887 3.67851 3.67851 3.62887 3.84044 
3.88266 3.88266 3.84044 4.05534 4.08851 4.08851 4.05534 4.27285 4.2957 
4.2957 4.27285 4.49216 4.50381 4.50381 4.49216 4.71239 4.71239 4.71239 
4.71239 4.93262 4.92097 4.92097 4.93262 5.15193 5.12908 5.12908 5.15193 
5.36944 5.33627 5.33627 5.36944 5.58434 5.54212 5.54212 5.58434 5.79591 
5.74627 5.74627 5.79591 6.00357 5.94841 5.94841 6.00357 6.20688 6.14833 
6.14833 6.20688 6.40559 6.34589 0.1224 0.1821 0.374951 0.316398 0.316398 
0.374951 0.560938 0.505782 0.505782 0.560938 0.740459 0.690821 0.690821 0.740459 
0.914162 0.871948 0.871948 0.914162 1.08292 1.04975 1.04975 1.08292 1.24778 
1.22494 1.22494 1.24778 1.40997 1.39833 1.39833 1.40997 1.5708 1.5708 
1.5708 1.5708 1.73162 1.74327 1.74327 1.73162 1.89381 1.91665 1.91665 
1.89381 2.05868 2.09184 2.09184 2.05868 2.22743 2.26964 2.26964 2.22743 
2.40113 2.45077 2.45077 2.40113 2.58066 2.63581 2.63581 2.58066 2.76664 
2.82519 2.82519 2.76664 2.95949 3.01919 3.01919 2.95949 3.15934 3.21789 
3.21789 3.15934 3.36605 3.42121 3.42121 3.36605 3.57923 3.62887 3.62887 
3.57923 3.79823 3.84044 3.84044 3.79823 4.02217 4.05534 4.05534 4.02217 
4.25 4.27285 4.27285 4.25 4.48051 4.49216 4.49216 4.48051 4.71239 
4.71239 4.71239 4.71239 4.94426 4.93262 4.93262 4.94426 5.17477 5.15193 
5.15193 5.17477 5.40261 5.36944 5.36944 5.40261 5.62655 5.58434 5.58434 
5.62655 5.84555 5.79591 5.79591 5.84555 6.05872 6.00357 6.00357 6.05872 
6.26544 6.20688 6.20688 6.26544 6.46529 6.40559 0.1821 0.2418 0.433503 
0.374951 0.374951 0.433503 0.616093 0.560938 0.560938 0.616093 0.790098 0.740459 
0.740459 0.790098 0.956377 0.914162 0.914162 0.956377 1.11608 1.08292 1.08292 
1.11608 1.27063 1.24778 1.24778 1.27063 1.42162 1.40997 1.40997 1.42162 
1.5708 1.5708 1.5708 1.5708 1.71997 1.73162 1.73162 1.71997 1.87096 
1.89381 1.89381 1.87096 2.02551 2.05868 2.05868 2.02551 2.18522 2.22743 
2.22743 2.18522 2.35149 2.40113 2.40113 2.35149 2.5255 2.58066 2.58066 
2.5255 2.70809 2.76664 2.76664 2.70809 2.89979 2.95949 2.95949 2.89979 
3.10079 3.15934 3.15934 3.10079 3.3109 3.36605 3.36605 3.3109 3.52959 
3.57923 3.57923 3.52959 3.75601 3.79823 3.79823 3.75601 3.989 4.02217 
4.02217 3.989 4.22716 4.25 4.25 4.22716 4.46887 4.48051 4.48051 
4.46887 4.71239 4.71239 4.71239 4.71239 4.95591 4.94426 4.94426 4.95591 
5.19762 5.17477 5.17477 5.19762 5.43577 5.40261 5.40261 5.43577 5.66877 
5.62655 5.62655 5.66877 5.89519 5.84555 5.84555 5.89519 6.11388 6.05872 
6.05872 6.11388 6.32399 6.26544 6.26544 6.32399 6.52499 6.46529 0.2418 
0.3015 0.492056 0.433503 0.433503 0.492056 0.671249 0.616093 0.616093 0.671249 
0.839737 0.790098 0.790098 0.839737 0.998591 0.956377 0.956377 0.998591 1.14925 
1.11608 1.11608 1.14925 1.29348 1.27063 1.27063 1.29348 1.43327 1.42162 
1.42162 1.43327 1.5708 1.5708 1.5708 1.5708 1.70833 1.71997 1.71997 
1.70833 1.84812 1.87096 1.87096 1.84812 1.99234 2.02551 2.02551 1.99234 
2.143 2.18522 2.18522 2.143 2.30186 2.35149 2.35149 2.30186 2.47034 
2.5255 2.5255 2.47034 2.64954 2.70809 2.70809 2.64954 2.84009 2.89979 
2.89979 2.84009 3.04224 3.10079 3.10079 3.04224 3.25574 3.3109 3.3109 
3.25574 3.47995 3.52959 3.52959 3.47995 3.7138 3.75601 3.75601 3.7138 
3.95584 3.989 3.989 3.95584 4.20431 4.22716 4.22716 4.20431 4.45722 
4.46887 4.46887 4.45722 4.71239 4.71239 4.71239 4.71239 4.96756 4.95591 
4.95591 4.96756 5.22047 5.19762 5.19762 5.22047 5.46894 5.43577 5.43577 
5.46894 5.71098 5.66877 5.66877 5.71098 5.94482 5.89519 5.89519 5.94482 
6.16904 6.11388 6.11388 6.16904 6.38254 6.32399 6.32399 6.38254 6.58469 
6.52499 0.3015 0.3612 0.550609 0.492056 0.492056 0.550609 0.726404 0.671249 
0.671249 0.726404 0.889375 0.839737 0.839737 0.889375 1.04081 0.998591 0.998591 
1.04081 1.18242 1.14925 1.14925 1.18242 1.31632 1.29348 1.29348 1.31632 
1.44491 1.43327 1.43327 1.44491 1.5708 1.5708 1.5708 1.5708 1.69668 
1.70833 1.70833 1.69668 1.82527 1.84812 1.84812 1.82527 1.95917 1.99234 
1.99234 1.95917 2.10079 2.143 2.143 2.10079 2.25222 2.30186 2.30186 
2.25222 2.41519 2.47034 2.47034 2.41519 2.59098 2.64954 2.64954 2.59098 
2.78039 2.84009 2.84009 2.78039 2.98368 3.04224 3.04224 2.98368 3.20059 
3.25574 3.25574 3.20059 3.43031 3.47995 3.47995 3.43031 3.67158 3.7138 
3.7138 3.67158 3.92267 3.95584 3.95584 3.92267 4.18146 4.20431 4.20431 
4.18146 4.44557 4.45722 4.45722 4.44557 4.71239 4.71239 4.71239 4.71239 
4.97921 4.96756 4.96756 4.97921 5.24331 5.22047 5.22047 5.24331 5.50211 
5.46894 5.46894 5.50211 5.75319 5.71098 5.71098 5.75319 5.99446 5.94482 
5.94482 5.99446 6.22419 6.16904 6.16904 6.22419 6.4411 6.38254 6.38254 
6.4411 6.64439 6.58469 0.3612 0.4209 0.609162 0.550609 0.550609 0.609162 
0.78156 0.726404 0.726404 0.78156 0.939014 0.889375 0.889375 0.939014 1.08302 
1.04081 1.04081 1.08302 1.21559 1.18242 1.18242 1.21559 1.33917 1.31632 
1.31632 1.33917 1.45656 1.44491 1.44491 1.45656 1.5708 1.5708 1.5708 
1.5708 1.68503 1.69668 1.69668 1.68503 1.80242 1.82527 1.82527 1.80242 
1.92601 1.95917 1.95917 1.92601 2.05857 2.10079 2.10079 2.05857 2.20258 
2.25222 2.25222 2.20258 2.36003 2.41519 2.41519 2.36003 2.53243 2.59098 
2.59098 2.53243 2.72069 2.78039 2.78039 2.72069 2.92513 2.98368 2.98368 
2.92513 3.14543 3.20059 3.20059 3.14543 3.38068 3.43031 3.43031 3.38068 
3.62937 3.67158 3.67158 3.62937 3.8895 3.92267 3.92267 3.8895 4.15862 
4.18146 4.18146 4.15862 4.43393 4.44557 4.44557 4.43393 4.71239 4.71239 
4.71239 4.71239 4.99085 4.97921 4.97921 4.99085 5.26616 5.24331 5.24331 
5.26616 5.53528 5.50211 5.50211 5.53528 5.79541 5.75319 5.75319 5.79541 
6.0441 5.99446 5.99446 6.0441 6.27935 6.22419 6.22419 6.27935 6.49965 
6.4411 6.4411 6.49965 6.70409 6.64439 0.4209 0.4806 0.667715 0.609162 
0.609162 0.667715 0.836716 0.78156 0.78156 0.836716 0.988653 0.939014 0.939014 
0.988653 1.12523 1.08302 1.08302 1.12523 1.24875 1.21559 1.21559 1.24875 
1.36201 1.33917 1.33917 1.36201 1.46821 1.45656 1.45656 1.46821 1.5708 
1.5708 1.5708 1.5708 1.67339 1.68503 1.68503 1.67339 1.77958 1.80242 
1.80242 1.77958 1.89284 1.92601 1.92601 1.89284 2.01636 2.05857 2.05857 
2.01636 2.15294 2.20258 2.20258 2.15294 2.30488 2.36003 2.36003 2.30488 
2.47388 2.53243 2.53243 2.47388 2.66099 2.72069 2.72069 2.66099 2.86658 
2.92513 2.92513 2.86658 3.09028 3.14543 3.14543 3.09028 3.33104 3.38068 
3.38068 3.33104 3.58716 3.62937 3.62937 3.58716 3.85633 3.8895 3.8895 
3.85633 4.13577 4.15862 4.15862 4.13577 4.42228 4.43393 4.43393 4.42228 
4.71239 4.71239 4.71239 4.71239 5.0025 4.99085 4.99085 5.0025 5.28901 
5.26616 5.26616 5.28901 5.56844 5.53528 5.53528 5.56844 5.83762 5.79541 
5.79541 5.83762 6.09374 6.0441 6.0441 6.09374 6.3345 6.27935 6.27935 
6.3345 6.5582 6.49965 6.49965 6.5582 6.76379 6.70409 0.4806 0.5403 
0.726268 0.667715 0.667715 0.726268 0.891871 0.836716 0.836716 0.891871 1.03829 
0.988653 0.988653 1.03829 1.16745 1.12523 1.12523 1.16745 1.28192 1.24875 
1.24875 1.28192 1.38486 1.36201 1.36201 1.38486 1.47985 1.46821 1.46821 
1.47985 1.5708 1.5708 1.5708 1.5708 1.66174 1.67339 1.67339 1.66174 
1.75673 1.77958 1.77958 1.75673 1.85967 1.89284 1.89284 1.85967 1.97414 
2.01636 2.01636 1.97414 2.1033 2.15294 2.15294 2.1033 2.24972 2.30488 
2.30488 2.24972 2.41532 2.47388 2.47388 2.41532 2.60129 2.66099 2.66099 
2.60129 2.80802 2.86658 2.86658 2.80802 3.03512 3.09028 3.09028 3.03512 
3.2814 3.33104 3.33104 3.2814 3.54494 3.58716 3.58716 3.54494 3.82317 
3.85633 3.85633 3.82317 4.11293 4.13577 4.13577 4.11293 4.41063 4.42228 
4.42228 4.41063 4.71239 4.71239 4.71239 4.71239 5.01415 5.0025 5.0025 
5.01415 5.31185 5.28901 5.28901 5.31185 5.60161 5.56844 5.56844 5.60161 
5.87984 5.83762 5.83762 5.87984 6.14338 6.09374 6.09374 6.14338 6.38966 
6.3345 6.3345 6.38966 6.61675 6.5582 6.5582 6.61675 6.82349 6.76379 
0.5403 0.6 0.784821 0.726268 0.726268 0.784821 0.947027 0.891871 0.891871 
0.947027 1.08793 1.03829 1.03829 1.08793 1.20966 1.16745 1.16745 1.20966 
1.31509 1.28192 1.28192 1.31509 1.40771 1.38486 1.38486 1.40771 1.4915 
1.47985 1.47985 1.4915 1.5708 1.5708 1.5708 1.5708 1.65009 1.66174 
1.66174 1.65009 1.73389 1.75673 1.75673 1.73389 1.8265 1.85967 1.85967 
1.8265 1.93193 1.97414 1.97414 1.93193 2.05366 2.1033 2.1033 2.05366 
2.19457 2.24972 2.24972 2.19457 2.35677 2.41532 2.41532 2.35677 2.54159 
2.60129 2.60129 2.54159 2.74947 2.80802 2.80802 2.74947 2.97996 3.03512 
3.03512 2.97996 3.23176 3.2814 3.2814 3.23176 3.50273 3.54494 3.54494 
3.50273 3.79 3.82317 3.82317 3.79 4.09008 4.11293 4.11293 4.09008 
4.39899 4.41063 4.41063 4.39899 4.71239 4.71239 4.71239 4.71239 5.02579 
5.01415 5.01415 5.02579 5.3347 5.31185 5.31185 5.3347 5.63478 5.60161 
5.60161 5.63478 5.92205 5.87984 5.87984 5.92205 6.19302 6.14338 6.14338 
6.19302 6.44481 6.38966 6.38966 6.44481 6.67531 6.61675 6.61675 6.67531 
6.88319 6.82349 
