# vtk DataFile Version 4.1
vtk output
ASCII
DATASET UNSTRUCTURED_GRID
POINTS 1280 float
0.01 0 0 0.209 0 0 0.204984 0.0407739 0 
0.00980785 0.0019509 0 0.00980785 0.0019509 0 0.204984 0.0407739 0 
0.193091 0.0799808 0 0.0092388 0.00382683 0 0.0092388 0.00382683 0 
0.193091 0.0799808 0 0.173777 0.116114 0 0.0083147 0.0055557 0 
0.0083147 0.0055557 0 0.173777 0.116114 0 0.147785 0.147785 0 
0.00707107 0.00707107 0 0.00707107 0.00707107 0 0.147785 0.147785 0 
0.116114 0.173777 0 0.0055557 0.0083147 0 0.0055557 0.0083147 0 
0.116114 0.173777 0 0.0799808 0.193091 0 0.00382683 0.0092388 0 
0.00382683 0.0092388 0 0.0799808 0.193091 0 0.0407739 0.204984 0 
0.0019509 0.00980785 0 0.0019509 0.00980785 0 0.0407739 0.204984 0 
1.27976e-17 0.209 0 6.12323e-19 0.01 0 6.12323e-19 0.01 0 
1.27976e-17 0.209 0 -0.0407739 0.204984 0 -0.0019509 0.00980785 0 
-0.0019509 0.00980785 0 -0.0407739 0.204984 0 -0.0799808 0.193091 0 
-0.00382683 0.0092388 0 -0.00382683 0.0092388 0 -0.0799808 0.193091 0 
-0.116114 0.173777 0 -0.0055557 0.0083147 0 -0.0055557 0.0083147 0 
-0.116114 0.173777 0 -0.147785 0.147785 0 -0.00707107 0.00707107 0 
-0.00707107 0.00707107 0 -0.147785 0.147785 0 -0.173777 0.116114 0 
-0.0083147 0.0055557 0 -0.0083147 0.0055557 0 -0.173777 0.116114 0 
-0.193091 0.0799808 0 -0.0092388 0.00382683 0 -0.0092388 0.00382683 0 
-0.193091 0.0799808 0 -0.204984 0.0407739 0 -0.00980785 0.0019509 0 
-0.00980785 0.0019509 0 -0.204984 0.0407739 0 -0.209 2.55951e-17 0 
-0.01 1.22465e-18 0 -0.01 1.22465e-18 0 -0.209 2.55951e-17 0 
-0.204984 -0.0407739 0 -0.00980785 -0.0019509 0 -0.00980785 -0.0019509 0 
-0.204984 -0.0407739 0 -0.193091 -0.0799808 0 -0.0092388 -0.00382683 0 
-0.0092388 -0.00382683 0 -0.193091 -0.0799808 0 -0.173777 -0.116114 0 
-0.0083147 -0.0055557 0 -0.0083147 -0.0055557 0 -0.173777 -0.116114 0 
-0.147785 -0.147785 0 -0.00707107 -0.00707107 0 -0.00707107 -0.00707107 0 
-0.147785 -0.147785 0 -0.116114 -0.173777 0 -0.0055557 -0.0083147 0 
-0.0055557 -0.0083147 0 -0.116114 -0.173777 0 -0.0799808 -0.193091 0 
-0.00382683 -0.0092388 0 -0.00382683 -0.0092388 0 -0.0799808 -0.193091 0 
-0.0407739 -0.204984 0 -0.0019509 -0.00980785 0 -0.0019509 -0.00980785 0 
-0.0407739 -0.204984 0 -3.83927e-17 -0.209 0 -1.83697e-18 -0.01 0 
-1.83697e-18 -0.01 0 -3.83927e-17 -0.209 0 0.0407739 -0.204984 0 
0.0019509 -0.00980785 0 0.0019509 -0.00980785 0 0.0407739 -0.204984 0 
0.0799808 -0.193091 0 0.00382683 -0.0092388 0 0.00382683 -0.0092388 0 
0.0799808 -0.193091 0 0.116114 -0.173777 0 0.0055557 -0.0083147 0 
0.0055557 -0.0083147 0 0.116114 -0.173777 0 0.147785 -0.147785 0 
0.00707107 -0.00707107 0 0.00707107 -0.00707107 0 0.147785 -0.147785 0 
0.173777 -0.116114 0 0.0083147 -0.0055557 0 0.0083147 -0.0055557 0 
0.173777 -0.116114 0 0.193091 -0.0799808 0 0.0092388 -0.00382683 0 
0.0092388 -0.00382683 0 0.193091 -0.0799808 0 0.204984 -0.0407739 0 
0.00980785 -0.0019509 0 0.00980785 -0.0019509 0 0.204984 -0.0407739 0 
0.209 -5.11902e-17 0 0.01 -2.44929e-18 0 0.209 0 0 
0.408 0 0 0.40016 0.0795969 0 0.204984 0.0407739 0 
0.204984 0.0407739 0 0.40016 0.0795969 0 0.376943 0.156135 0 
0.193091 0.0799808 0 0.193091 0.0799808 0 0.376943 0.156135 0 
0.33924 0.226673 0 0.173777 0.116114 0 0.173777 0.116114 0 
0.33924 0.226673 0 0.2885 0.2885 0 0.147785 0.147785 0 
0.147785 0.147785 0 0.2885 0.2885 0 0.226673 0.33924 0 
0.116114 0.173777 0 0.116114 0.173777 0 0.226673 0.33924 0 
0.156135 0.376943 0 0.0799808 0.193091 0 0.0799808 0.193091 0 
0.156135 0.376943 0 0.0795969 0.40016 0 0.0407739 0.204984 0 
0.0407739 0.204984 0 0.0795969 0.40016 0 2.49828e-17 0.408 0 
1.27976e-17 0.209 0 1.27976e-17 0.209 0 2.49828e-17 0.408 0 
-0.0795969 0.40016 0 -0.0407739 0.204984 0 -0.0407739 0.204984 0 
-0.0795969 0.40016 0 -0.156135 0.376943 0 -0.0799808 0.193091 0 
-0.0799808 0.193091 0 -0.156135 0.376943 0 -0.226673 0.33924 0 
-0.116114 0.173777 0 -0.116114 0.173777 0 -0.226673 0.33924 0 
-0.2885 0.2885 0 -0.147785 0.147785 0 -0.147785 0.147785 0 
-0.2885 0.2885 0 -0.33924 0.226673 0 -0.173777 0.116114 0 
-0.173777 0.116114 0 -0.33924 0.226673 0 -0.376943 0.156135 0 
-0.193091 0.0799808 0 -0.193091 0.0799808 0 -0.376943 0.156135 0 
-0.40016 0.0795969 0 -0.204984 0.0407739 0 -0.204984 0.0407739 0 
-0.40016 0.0795969 0 -0.408 4.99656e-17 0 -0.209 2.55951e-17 0 
-0.209 2.55951e-17 0 -0.408 4.99656e-17 0 -0.40016 -0.0795969 0 
-0.204984 -0.0407739 0 -0.204984 -0.0407739 0 -0.40016 -0.0795969 0 
-0.376943 -0.156135 0 -0.193091 -0.0799808 0 -0.193091 -0.0799808 0 
-0.376943 -0.156135 0 -0.33924 -0.226673 0 -0.173777 -0.116114 0 
-0.173777 -0.116114 0 -0.33924 -0.226673 0 -0.2885 -0.2885 0 
-0.147785 -0.147785 0 -0.147785 -0.147785 0 -0.2885 -0.2885 0 
-0.226673 -0.33924 0 -0.116114 -0.173777 0 -0.116114 -0.173777 0 
-0.226673 -0.33924 0 -0.156135 -0.376943 0 -0.0799808 -0.193091 0 
-0.0799808 -0.193091 0 -0.156135 -0.376943 0 -0.0795969 -0.40016 0 
-0.0407739 -0.204984 0 -0.0407739 -0.204984 0 -0.0795969 -0.40016 0 
-7.49484e-17 -0.408 0 -3.83927e-17 -0.209 0 -3.83927e-17 -0.209 0 
-7.49484e-17 -0.408 0 0.0795969 -0.40016 0 0.0407739 -0.204984 0 
0.0407739 -0.204984 0 0.0795969 -0.40016 0 0.156135 -0.376943 0 
0.0799808 -0.193091 0 0.0799808 -0.193091 0 0.156135 -0.376943 0 
0.226673 -0.33924 0 0.116114 -0.173777 0 0.116114 -0.173777 0 
0.226673 -0.33924 0 0.2885 -0.2885 0 0.147785 -0.147785 0 
0.147785 -0.147785 0 0.2885 -0.2885 0 0.33924 -0.226673 0 
0.173777 -0.116114 0 0.173777 -0.116114 0 0.33924 -0.226673 0 
0.376943 -0.156135 0 0.193091 -0.0799808 0 0.193091 -0.0799808 0 
0.376943 -0.156135 0 0.40016 -0.0795969 0 0.204984 -0.0407739 0 
0.204984 -0.0407739 0 0.40016 -0.0795969 0 0.408 -9.99312e-17 0 
0.209 -5.11902e-17 0 0.408 0 0 0.607 0 0 
0.595337 0.11842 0 0.40016 0.0795969 0 0.40016 0.0795969 0 
0.595337 0.11842 0 0.560795 0.232289 0 0.376943 0.156135 0 
0.376943 0.156135 0 0.560795 0.232289 0 0.504702 0.337231 0 
0.33924 0.226673 0 0.33924 0.226673 0 0.504702 0.337231 0 
0.429214 0.429214 0 0.2885 0.2885 0 0.2885 0.2885 0 
0.429214 0.429214 0 0.337231 0.504702 0 0.226673 0.33924 0 
0.226673 0.33924 0 0.337231 0.504702 0 0.232289 0.560795 0 
0.156135 0.376943 0 0.156135 0.376943 0 0.232289 0.560795 0 
0.11842 0.595337 0 0.0795969 0.40016 0 0.0795969 0.40016 0 
0.11842 0.595337 0 3.7168e-17 0.607 0 2.49828e-17 0.408 0 
2.49828e-17 0.408 0 3.7168e-17 0.607 0 -0.11842 0.595337 0 
-0.0795969 0.40016 0 -0.0795969 0.40016 0 -0.11842 0.595337 0 
-0.232289 0.560795 0 -0.156135 0.376943 0 -0.156135 0.376943 0 
-0.232289 0.560795 0 -0.337231 0.504702 0 -0.226673 0.33924 0 
-0.226673 0.33924 0 -0.337231 0.504702 0 -0.429214 0.429214 0 
-0.2885 0.2885 0 -0.2885 0.2885 0 -0.429214 0.429214 0 
-0.504702 0.337231 0 -0.33924 0.226673 0 -0.33924 0.226673 0 
-0.504702 0.337231 0 -0.560795 0.232289 0 -0.376943 0.156135 0 
-0.376943 0.156135 0 -0.560795 0.232289 0 -0.595337 0.11842 0 
-0.40016 0.0795969 0 -0.40016 0.0795969 0 -0.595337 0.11842 0 
-0.607 7.43361e-17 0 -0.408 4.99656e-17 0 -0.408 4.99656e-17 0 
-0.607 7.43361e-17 0 -0.595337 -0.11842 0 -0.40016 -0.0795969 0 
-0.40016 -0.0795969 0 -0.595337 -0.11842 0 -0.560795 -0.232289 0 
-0.376943 -0.156135 0 -0.376943 -0.156135 0 -0.560795 -0.232289 0 
-0.504702 -0.337231 0 -0.33924 -0.226673 0 -0.33924 -0.226673 0 
-0.504702 -0.337231 0 -0.429214 -0.429214 0 -0.2885 -0.2885 0 
-0.2885 -0.2885 0 -0.429214 -0.429214 0 -0.337231 -0.504702 0 
-0.226673 -0.33924 0 -0.226673 -0.33924 0 -0.337231 -0.504702 0 
-0.232289 -0.560795 0 -0.156135 -0.376943 0 -0.156135 -0.376943 0 
-0.232289 -0.560795 0 -0.11842 -0.595337 0 -0.0795969 -0.40016 0 
-0.0795969 -0.40016 0 -0.11842 -0.595337 0 -1.11504e-16 -0.607 0 
-7.49484e-17 -0.408 0 -7.49484e-17 -0.408 0 -1.11504e-16 -0.607 0 
0.11842 -0.595337 0 0.0795969 -0.40016 0 0.0795969 -0.40016 0 
0.11842 -0.595337 0 0.232289 -0.560795 0 0.156135 -0.376943 0 
0.156135 -0.376943 0 0.232289 -0.560795 0 0.337231 -0.504702 0 
0.226673 -0.33924 0 0.226673 -0.33924 0 0.337231 -0.504702 0 
0.429214 -0.429214 0 0.2885 -0.2885 0 0.2885 -0.2885 0 
0.429214 -0.429214 0 0.504702 -0.337231 0 0.33924 -0.226673 0 
0.33924 -0.226673 0 0.504702 -0.337231 0 0.560795 -0.232289 0 
0.376943 -0.156135 0 0.376943 -0.156135 0 0.560795 -0.232289 0 
0.595337 -0.11842 0 0.40016 -0.0795969 0 0.40016 -0.0795969 0 
0.595337 -0.11842 0 0.607 -1.48672e-16 0 0.408 -9.99312e-17 0 
0.607 0 0 0.806 0 0 0.790513 0.157243 0 
0.595337 0.11842 0 0.595337 0.11842 0 0.790513 0.157243 0 
0.744647 0.308443 0 0.560795 0.232289 0 0.560795 0.232289 0 
0.744647 0.308443 0 0.670165 0.44779 0 0.504702 0.337231 0 
0.504702 0.337231 0 0.670165 0.44779 0 0.569928 0.569928 0 
0.429214 0.429214 0 0.429214 0.429214 0 0.569928 0.569928 0 
0.44779 0.670165 0 0.337231 0.504702 0 0.337231 0.504702 0 
0.44779 0.670165 0 0.308443 0.744647 0 0.232289 0.560795 0 
0.232289 0.560795 0 0.308443 0.744647 0 0.157243 0.790513 0 
0.11842 0.595337 0 0.11842 0.595337 0 0.157243 0.790513 0 
4.93533e-17 0.806 0 3.7168e-17 0.607 0 3.7168e-17 0.607 0 
4.93533e-17 0.806 0 -0.157243 0.790513 0 -0.11842 0.595337 0 
-0.11842 0.595337 0 -0.157243 0.790513 0 -0.308443 0.744647 0 
-0.232289 0.560795 0 -0.232289 0.560795 0 -0.308443 0.744647 0 
-0.44779 0.670165 0 -0.337231 0.504702 0 -0.337231 0.504702 0 
-0.44779 0.670165 0 -0.569928 0.569928 0 -0.429214 0.429214 0 
-0.429214 0.429214 0 -0.569928 0.569928 0 -0.670165 0.44779 0 
-0.504702 0.337231 0 -0.504702 0.337231 0 -0.670165 0.44779 0 
-0.744647 0.308443 0 -0.560795 0.232289 0 -0.560795 0.232289 0 
-0.744647 0.308443 0 -0.790513 0.157243 0 -0.595337 0.11842 0 
-0.595337 0.11842 0 -0.790513 0.157243 0 -0.806 9.87065e-17 0 
-0.607 7.43361e-17 0 -0.607 7.43361e-17 0 -0.806 9.87065e-17 0 
-0.790513 -0.157243 0 -0.595337 -0.11842 0 -0.595337 -0.11842 0 
-0.790513 -0.157243 0 -0.744647 -0.308443 0 -0.560795 -0.232289 0 
-0.560795 -0.232289 0 -0.744647 -0.308443 0 -0.670165 -0.44779 0 
-0.504702 -0.337231 0 -0.504702 -0.337231 0 -0.670165 -0.44779 0 
-0.569928 -0.569928 0 -0.429214 -0.429214 0 -0.429214 -0.429214 0 
[...]
POINT_DATA 1280
FIELD FieldData 2
velocity 3 1280 double
0 100 0 0 4.7846889952 0 -0.93344651682 4.6927525378 0 
-19.509032202 98.07852804 0 -19.509032202 98.07852804 0 -0.93344651682 4.6927525378 0 
-1.8310212075 4.4204762321 0 -38.268343237 92.387953251 0 -38.268343237 92.387953251 0 
-1.8310212075 4.4204762321 0 -2.65823078 3.9783235038 0 -55.557023302 83.14696123 0 
-55.557023302 83.14696123 0 -2.65823078 3.9783235038 0 -3.3832860344 3.3832860344 0 
-70.710678119 70.710678119 0 -70.710678119 70.710678119 0 -3.3832860344 3.3832860344 0 
-3.9783235038 2.65823078 0 -83.14696123 55.557023302 0 -83.14696123 55.557023302 0 
-3.9783235038 2.65823078 0 -4.4204762321 1.8310212075 0 -92.387953251 38.268343237 0 
-92.387953251 38.268343237 0 -4.4204762321 1.8310212075 0 -4.6927525378 0.93344651682 0 
-98.07852804 19.509032202 0 -98.07852804 19.509032202 0 -4.6927525378 0.93344651682 0 
-4.7846889952 2.9297770315e-16 0 -100 6.1232339957e-15 0 -100 6.1232339957e-15 0 
-4.7846889952 2.9297770315e-16 0 -4.6927525378 -0.93344651682 0 -98.07852804 -19.509032202 0 
-98.07852804 -19.509032202 0 -4.6927525378 -0.93344651682 0 -4.4204762321 -1.8310212075 0 
-92.387953251 -38.268343237 0 -92.387953251 -38.268343237 0 -4.4204762321 -1.8310212075 0 
-3.9783235038 -2.65823078 0 -83.14696123 -55.557023302 0 -83.14696123 -55.557023302 0 
-3.9783235038 -2.65823078 0 -3.3832860344 -3.3832860344 0 -70.710678119 -70.710678119 0 
-70.710678119 -70.710678119 0 -3.3832860344 -3.3832860344 0 -2.65823078 -3.9783235038 0 
-55.557023302 -83.14696123 0 -55.557023302 -83.14696123 0 -2.65823078 -3.9783235038 0 
-1.8310212075 -4.4204762321 0 -38.268343237 -92.387953251 0 -38.268343237 -92.387953251 0 
-1.8310212075 -4.4204762321 0 -0.93344651682 -4.6927525378 0 -19.509032202 -98.07852804 0 
-19.509032202 -98.07852804 0 -0.93344651682 -4.6927525378 0 -5.8595540629e-16 -4.7846889952 0 
-1.2246467991e-14 -100 0 3.7964050774e-13 3100 0 1.8164617595e-14 148.32535885 0 
-28.936842022 145.47532867 0 -604.77999825 3040.4343693 0 19.509032202 -98.07852804 0 
0.93344651682 -4.6927525378 0 1.8310212075 -4.4204762321 0 38.268343237 -92.387953251 0 
38.268343237 -92.387953251 0 1.8310212075 -4.4204762321 0 2.65823078 -3.9783235038 0 
55.557023302 -83.14696123 0 55.557023302 -83.14696123 0 2.65823078 -3.9783235038 0 
3.3832860344 -3.3832860344 0 70.710678119 -70.710678119 0 70.710678119 -70.710678119 0 
3.3832860344 -3.3832860344 0 3.9783235038 -2.65823078 0 83.14696123 -55.557023302 0 
83.14696123 -55.557023302 0 3.9783235038 -2.65823078 0 4.4204762321 -1.8310212075 0 
92.387953251 -38.268343237 0 92.387953251 -38.268343237 0 4.4204762321 -1.8310212075 0 
4.6927525378 -0.93344651682 0 98.07852804 -19.509032202 0 98.07852804 -19.509032202 0 
4.6927525378 -0.93344651682 0 4.7846889952 -8.7893310944e-16 0 100 -1.8369701987e-14 0 
100 -1.8369701987e-14 0 4.7846889952 -8.7893310944e-16 0 4.6927525378 0.93344651682 0 
98.07852804 19.509032202 0 98.07852804 19.509032202 0 4.6927525378 0.93344651682 0 
4.4204762321 1.8310212075 0 92.387953251 38.268343237 0 92.387953251 38.268343237 0 
4.4204762321 1.8310212075 0 3.9783235038 2.65823078 0 83.14696123 55.557023302 0 
83.14696123 55.557023302 0 3.9783235038 2.65823078 0 3.3832860344 3.3832860344 0 
70.710678119 70.710678119 0 70.710678119 70.710678119 0 3.3832860344 3.3832860344 0 
2.65823078 3.9783235038 0 55.557023302 83.14696123 0 55.557023302 83.14696123 0 
2.65823078 3.9783235038 0 1.8310212075 4.4204762321 0 38.268343237 92.387953251 0 
38.268343237 92.387953251 0 1.8310212075 4.4204762321 0 0.93344651682 4.6927525378 0 
19.509032202 98.07852804 0 19.509032202 98.07852804 0 0.93344651682 4.6927525378 0 
1.1719108126e-15 4.7846889952 0 2.4492935983e-14 100 0 0 4.7846889952 0 
0 2.4509803922 0 -0.47816255396 2.4038854912 0 -0.93344651682 4.6927525378 0 
-0.93344651682 4.6927525378 0 -0.47816255396 2.4038854912 0 -0.93794958913 2.2644106189 0 
-1.8310212075 4.4204762321 0 -1.8310212075 4.4204762321 0 -0.93794958913 2.2644106189 0 
-1.3616917476 2.0379157164 0 -2.65823078 3.9783235038 0 -2.65823078 3.9783235038 0 
-1.3616917476 2.0379157164 0 -1.7331048558 1.7331048558 0 -3.3832860344 3.3832860344 0 
-3.3832860344 3.3832860344 0 -1.7331048558 1.7331048558 0 -2.0379157164 1.3616917476 0 
-3.9783235038 2.65823078 0 -3.9783235038 2.65823078 0 -2.0379157164 1.3616917476 0 
-2.2644106189 0.93794958913 0 -4.4204762321 1.8310212075 0 -4.4204762321 1.8310212075 0 
-2.2644106189 0.93794958913 0 -2.4038854912 0.47816255396 0 -4.6927525378 0.93344651682 0 
-4.6927525378 0.93344651682 0 -2.4038854912 0.47816255396 0 -2.4509803922 1.500792646e-16 0 
-4.7846889952 2.9297770315e-16 0 -4.7846889952 2.9297770315e-16 0 -2.4509803922 1.500792646e-16 0 
-2.4038854912 -0.47816255396 0 -4.6927525378 -0.93344651682 0 -4.6927525378 -0.93344651682 0 
-2.4038854912 -0.47816255396 0 -2.2644106189 -0.93794958913 0 -4.4204762321 -1.8310212075 0 
-4.4204762321 -1.8310212075 0 -2.2644106189 -0.93794958913 0 -2.0379157164 -1.3616917476 0 
-3.9783235038 -2.65823078 0 -3.9783235038 -2.65823078 0 -2.0379157164 -1.3616917476 0 
-1.7331048558 -1.7331048558 0 -3.3832860344 -3.3832860344 0 -3.3832860344 -3.3832860344 0 
-1.7331048558 -1.7331048558 0 -1.3616917476 -2.0379157164 0 -2.65823078 -3.9783235038 0 
-2.65823078 -3.9783235038 0 -1.3616917476 -2.0379157164 0 -0.93794958913 -2.2644106189 0 
-1.8310212075 -4.4204762321 0 -1.8310212075 -4.4204762321 0 -0.93794958913 -2.2644106189 0 
-0.47816255396 -2.4038854912 0 -0.93344651682 -4.6927525378 0 -0.93344651682 -4.6927525378 0 
-0.47816255396 -2.4038854912 0 -3.001585292e-16 -2.4509803922 0 -5.8595540629e-16 -4.7846889952 0 
1.8164617595e-14 148.32535885 0 9.3049144053e-15 75.980392157 0 -14.823039173 74.520450227 0 
-28.936842022 145.47532867 0 0.93344651682 -4.6927525378 0 0.47816255396 -2.4038854912 0 
0.93794958913 -2.2644106189 0 1.8310212075 -4.4204762321 0 1.8310212075 -4.4204762321 0 
0.93794958913 -2.2644106189 0 1.3616917476 -2.0379157164 0 2.65823078 -3.9783235038 0 
2.65823078 -3.9783235038 0 1.3616917476 -2.0379157164 0 1.7331048558 -1.7331048558 0 
3.3832860344 -3.3832860344 0 3.3832860344 -3.3832860344 0 1.7331048558 -1.7331048558 0 
2.0379157164 -1.3616917476 0 3.9783235038 -2.65823078 0 3.9783235038 -2.65823078 0 
2.0379157164 -1.3616917476 0 2.2644106189 -0.93794958913 0 4.4204762321 -1.8310212075 0 
4.4204762321 -1.8310212075 0 2.2644106189 -0.93794958913 0 2.4038854912 -0.47816255396 0 
4.6927525378 -0.93344651682 0 4.6927525378 -0.93344651682 0 2.4038854912 -0.47816255396 0 
2.4509803922 -4.502377938e-16 0 4.7846889952 -8.7893310944e-16 0 4.7846889952 -8.7893310944e-16 0 
2.4509803922 -4.502377938e-16 0 2.4038854912 0.47816255396 0 4.6927525378 0.93344651682 0 
4.6927525378 0.93344651682 0 2.4038854912 0.47816255396 0 2.2644106189 0.93794958913 0 
4.4204762321 1.8310212075 0 4.4204762321 1.8310212075 0 2.2644106189 0.93794958913 0 
2.0379157164 1.3616917476 0 3.9783235038 2.65823078 0 3.9783235038 2.65823078 0 
2.0379157164 1.3616917476 0 1.7331048558 1.7331048558 0 3.3832860344 3.3832860344 0 
3.3832860344 3.3832860344 0 1.7331048558 1.7331048558 0 1.3616917476 2.0379157164 0 
2.65823078 3.9783235038 0 2.65823078 3.9783235038 0 1.3616917476 2.0379157164 0 
0.93794958913 2.2644106189 0 1.8310212075 4.4204762321 0 1.8310212075 4.4204762321 0 
0.93794958913 2.2644106189 0 0.47816255396 2.4038854912 0 0.93344651682 4.6927525378 0 
0.93344651682 4.6927525378 0 0.47816255396 2.4038854912 0 6.0031705841e-16 2.4509803922 0 
1.1719108126e-15 4.7846889952 0 0 2.4509803922 0 0 1.647446458 0 
-0.32140085999 1.6157912362 0 -0.47816255396 2.4038854912 0 -0.47816255396 2.4038854912 0 
-0.32140085999 1.6157912362 0 -0.63045046518 1.5220420634 0 -0.93794958913 2.2644106189 0 
-0.93794958913 2.2644106189 0 -0.63045046518 1.5220420634 0 -0.91527221255 1.3698016677 0 
-1.3616917476 2.0379157164 0 -1.3616917476 2.0379157164 0 -0.91527221255 1.3698016677 0 
-1.1649205621 1.1649205621 0 -1.7331048558 1.7331048558 0 -1.7331048558 1.7331048558 0 
-1.1649205621 1.1649205621 0 -1.3698016677 0.91527221255 0 -2.0379157164 1.3616917476 0 
-2.0379157164 1.3616917476 0 -1.3698016677 0.91527221255 0 -1.5220420634 0.63045046518 0 
-2.2644106189 0.93794958913 0 -2.2644106189 0.93794958913 0 -1.5220420634 0.63045046518 0 
-1.6157912362 0.32140085999 0 -2.4038854912 0.47816255396 0 -2.4038854912 0.47816255396 0 
-1.6157912362 0.32140085999 0 -1.647446458 1.0087700158e-16 0 -2.4509803922 1.500792646e-16 0 
-2.4509803922 1.500792646e-16 0 -1.647446458 1.0087700158e-16 0 -1.6157912362 -0.32140085999 0 
-2.4038854912 -0.47816255396 0 -2.4038854912 -0.47816255396 0 -1.6157912362 -0.32140085999 0 
-1.5220420634 -0.63045046518 0 -2.2644106189 -0.93794958913 0 -2.2644106189 -0.93794958913 0 
-1.5220420634 -0.63045046518 0 -1.3698016677 -0.91527221255 0 -2.0379157164 -1.3616917476 0 
-2.0379157164 -1.3616917476 0 -1.3698016677 -0.91527221255 0 -1.1649205621 -1.1649205621 0 
-1.7331048558 -1.7331048558 0 -1.7331048558 -1.7331048558 0 -1.1649205621 -1.1649205621 0 
-0.91527221255 -1.3698016677 0 -1.3616917476 -2.0379157164 0 -1.3616917476 -2.0379157164 0 
-0.91527221255 -1.3698016677 0 -0.63045046518 -1.5220420634 0 -0.93794958913 -2.2644106189 0 
-0.93794958913 -2.2644106189 0 -0.63045046518 -1.5220420634 0 -0.32140085999 -1.6157912362 0 
-0.47816255396 -2.4038854912 0 -0.47816255396 -2.4038854912 0 -0.32140085999 -1.6157912362 0 
-2.0175400315e-16 -1.647446458 0 -3.001585292e-16 -2.4509803922 0 9.3049144053e-15 75.980392157 0 
6.2543740978e-15 51.070840198 0 -9.9634266598 50.089528324 0 -14.823039173 74.520450227 0 
0.47816255396 -2.4038854912 0 0.32140085999 -1.6157912362 0 0.63045046518 -1.5220420634 0 
0.93794958913 -2.2644106189 0 0.93794958913 -2.2644106189 0 0.63045046518 -1.5220420634 0 
0.91527221255 -1.3698016677 0 1.3616917476 -2.0379157164 0 1.3616917476 -2.0379157164 0 
0.91527221255 -1.3698016677 0 1.1649205621 -1.1649205621 0 1.7331048558 -1.7331048558 0 
1.7331048558 -1.7331048558 0 1.1649205621 -1.1649205621 0 1.3698016677 -0.91527221255 0 
2.0379157164 -1.3616917476 0 2.0379157164 -1.3616917476 0 1.3698016677 -0.91527221255 0 
1.5220420634 -0.63045046518 0 2.2644106189 -0.93794958913 0 2.2644106189 -0.93794958913 0 
1.5220420634 -0.63045046518 0 1.6157912362 -0.32140085999 0 2.4038854912 -0.47816255396 0 
2.4038854912 -0.47816255396 0 1.6157912362 -0.32140085999 0 1.647446458 -3.0263100473e-16 0 
2.4509803922 -4.502377938e-16 0 2.4509803922 -4.502377938e-16 0 1.647446458 -3.0263100473e-16 0 
1.6157912362 0.32140085999 0 2.4038854912 0.47816255396 0 2.4038854912 0.47816255396 0 
1.6157912362 0.32140085999 0 1.5220420634 0.63045046518 0 2.2644106189 0.93794958913 0 
2.2644106189 0.93794958913 0 1.5220420634 0.63045046518 0 1.3698016677 0.91527221255 0 
2.0379157164 1.3616917476 0 2.0379157164 1.3616917476 0 1.3698016677 0.91527221255 0 
1.1649205621 1.1649205621 0 1.7331048558 1.7331048558 0 1.7331048558 1.7331048558 0 
1.1649205621 1.1649205621 0 0.91527221255 1.3698016677 0 1.3616917476 2.0379157164 0 
1.3616917476 2.0379157164 0 0.91527221255 1.3698016677 0 0.63045046518 1.5220420634 0 
0.93794958913 2.2644106189 0 0.93794958913 2.2644106189 0 0.63045046518 1.5220420634 0 
0.32140085999 1.6157912362 0 0.47816255396 2.4038854912 0 0.47816255396 2.4038854912 0 
0.32140085999 1.6157912362 0 4.0350800631e-16 1.647446458 0 6.0031705841e-16 2.4509803922 0 
0 1.647446458 0 0 1.2406947891 0 -0.24204754593 1.2168551866 0 
-0.32140085999 1.6157912362 0 -0.32140085999 1.6157912362 0 -0.24204754593 1.2168551866 0 
-0.4747933404 1.1462525217 0 -0.63045046518 1.5220420634 0 -0.63045046518 1.5220420634 0 
-0.4747933404 1.1462525217 0 -0.68929309308 1.0316000153 0 -0.91527221255 1.3698016677 0 
-0.91527221255 1.3698016677 0 -0.68929309308 1.0316000153 0 -0.87730369874 0.87730369874 0 
-1.1649205621 1.1649205621 0 -1.1649205621 1.1649205621 0 -0.87730369874 0.87730369874 0 
-1.0316000153 0.68929309308 0 -1.3698016677 0.91527221255 0 -1.3698016677 0.91527221255 0 
-1.0316000153 0.68929309308 0 -1.1462525217 0.4747933404 0 -1.5220420634 0.63045046518 0 
-1.5220420634 0.63045046518 0 -1.1462525217 0.4747933404 0 -1.2168551866 0.24204754593 0 
-1.6157912362 0.32140085999 0 -1.6157912362 0.32140085999 0 -1.2168551866 0.24204754593 0 
-1.2406947891 7.5970645108e-17 0 -1.647446458 1.0087700158e-16 0 -1.647446458 1.0087700158e-16 0 
-1.2406947891 7.5970645108e-17 0 -1.2168551866 -0.24204754593 0 -1.6157912362 -0.32140085999 0 
-1.6157912362 -0.32140085999 0 -1.2168551866 -0.24204754593 0 -1.1462525217 -0.4747933404 0 
-1.5220420634 -0.63045046518 0 -1.5220420634 -0.63045046518 0 -1.1462525217 -0.4747933404 0 
-1.0316000153 -0.68929309308 0 -1.3698016677 -0.91527221255 0 -1.3698016677 -0.91527221255 0 
-1.0316000153 -0.68929309308 0 -0.87730369874 -0.87730369874 0 -1.1649205621 -1.1649205621 0 
-1.1649205621 -1.1649205621 0 -0.87730369874 -0.87730369874 0 -0.68929309308 -1.0316000153 0 
-0.91527221255 -1.3698016677 0 -0.91527221255 -1.3698016677 0 -0.68929309308 -1.0316000153 0 
-0.4747933404 -1.1462525217 0 -0.63045046518 -1.5220420634 0 -0.63045046518 -1.5220420634 0 
-0.4747933404 -1.1462525217 0 -0.24204754593 -1.2168551866 0 -0.32140085999 -1.6157912362 0 
-0.32140085999 -1.6157912362 0 -0.24204754593 -1.2168551866 0 -1.5194129022e-16 -1.2406947891 0 
-2.0175400315e-16 -1.647446458 0 6.2543740978e-15 51.070840198 0 4.7101799967e-15 38.461538462 0 
-7.5034739237 37.722510785 -0 -9.9634266598 50.089528324 -0 0.32140085999 -1.6157912362 0 
0.24204754593 -1.2168551866 0 0.4747933404 -1.1462525217 0 0.63045046518 -1.5220420634 0 
0.63045046518 -1.5220420634 0 0.4747933404 -1.1462525217 0 0.68929309308 -1.0316000153 0 
0.91527221255 -1.3698016677 0 0.91527221255 -1.3698016677 0 0.68929309308 -1.0316000153 0 
0.87730369874 -0.87730369874 0 1.1649205621 -1.1649205621 0 1.1649205621 -1.1649205621 0 
0.87730369874 -0.87730369874 0 1.0316000153 -0.68929309308 0 1.3698016677 -0.91527221255 0 
1.3698016677 -0.91527221255 0 1.0316000153 -0.68929309308 0 1.1462525217 -0.4747933404 0 
1.5220420634 -0.63045046518 0 1.5220420634 -0.63045046518 0 1.1462525217 -0.4747933404 0 
1.2168551866 -0.24204754593 0 1.6157912362 -0.32140085999 0 1.6157912362 -0.32140085999 0 
1.2168551866 -0.24204754593 0 1.2406947891 -2.2791193533e-16 0 1.647446458 -3.0263100473e-16 0 
1.647446458 -3.0263100473e-16 0 1.2406947891 -2.2791193533e-16 0 1.2168551866 0.24204754593 0 
1.6157912362 0.32140085999 0 1.6157912362 0.32140085999 0 1.2168551866 0.24204754593 0 
1.1462525217 0.4747933404 0 1.5220420634 0.63045046518 0 1.5220420634 0.63045046518 0 
1.1462525217 0.4747933404 0 1.0316000153 0.68929309308 0 1.3698016677 0.91527221255 0 
1.3698016677 0.91527221255 0 1.0316000153 0.68929309308 0 0.87730369874 0.87730369874 0 
1.1649205621 1.1649205621 0 1.1649205621 1.1649205621 0 0.87730369874 0.87730369874 0 
0.68929309308 1.0316000153 0 0.91527221255 1.3698016677 0 0.91527221255 1.3698016677 0 
0.68929309308 1.0316000153 0 0.4747933404 1.1462525217 0 0.63045046518 1.5220420634 0 
0.63045046518 1.5220420634 0 0.4747933404 1.1462525217 0 0.24204754593 1.2168551866 0 
0.32140085999 1.6157912362 0 0.32140085999 1.6157912362 0 0.24204754593 1.2168551866 0 
3.0388258043e-16 1.2406947891 0 4.0350800631e-16 1.647446458 0 0 1.2406947891 0 
0 0.99502487562 0 -0.1941197234 0.97590575165 0 -0.24204754593 1.2168551866 0 
-0.24204754593 1.2168551866 0 -0.1941197234 0.97590575165 0 -0.38077953469 0.91928311693 0 
-0.4747933404 1.1462525217 0 -0.4747933404 1.1462525217 0 -0.38077953469 0.91928311693 0 
-0.55280620201 0.82733294756 0 -0.68929309308 1.0316000153 0 -0.68929309308 1.0316000153 0 
-0.55280620201 0.82733294756 0 -0.703588837 0.703588837 0 -0.87730369874 0.87730369874 0 
-0.87730369874 0.87730369874 0 -0.703588837 0.703588837 0 -0.82733294756 0.55280620201 0 
-1.0316000153 0.68929309308 0 -1.0316000153 0.68929309308 0 -0.82733294756 0.55280620201 0 
-0.91928311693 0.38077953469 0 -1.1462525217 0.4747933404 0 -1.1462525217 0.4747933404 0 
-0.91928311693 0.38077953469 0 -0.97590575165 0.1941197234 0 -1.2168551866 0.24204754593 0 
-1.2168551866 0.24204754593 0 -0.97590575165 0.1941197234 0 -0.99502487562 6.092770145e-17 0 
-1.2406947891 7.5970645108e-17 0 -1.2406947891 7.5970645108e-17 0 -0.99502487562 6.092770145e-17 0 
-0.97590575165 -0.1941197234 0 -1.2168551866 -0.24204754593 0 -1.2168551866 -0.24204754593 0 
-0.97590575165 -0.1941197234 0 -0.91928311693 -0.38077953469 0 -1.1462525217 -0.4747933404 0 
-1.1462525217 -0.4747933404 0 -0.91928311693 -0.38077953469 0 -0.82733294756 -0.55280620201 0 
-1.0316000153 -0.68929309308 0 -1.0316000153 -0.68929309308 0 -0.82733294756 -0.55280620201 0 
-0.703588837 -0.703588837 0 -0.87730369874 -0.87730369874 0 -0.87730369874 -0.87730369874 0 
-0.703588837 -0.703588837 0 -0.55280620201 -0.82733294756 0 -0.68929309308 -1.0316000153 0 
-0.68929309308 -1.0316000153 0 -0.55280620201 -0.82733294756 0 -0.38077953469 -0.91928311693 0 
-0.4747933404 -1.1462525217 0 -0.4747933404 -1.1462525217 0 -0.38077953469 -0.91928311693 0 
-0.1941197234 -0.97590575165 0 -0.24204754593 -1.2168551866 0 -0.24204754593 -1.2168551866 0 
-0.1941197234 -0.97590575165 0 -1.218554029e-16 -0.99502487562 0 -1.5194129022e-16 -1.2406947891 0 
4.7101799967e-15 38.461538462 0 3.7775174899e-15 30.845771144 0 -6.0177114254 30.253078301 0 
-7.5034739237 37.722510785 0 0.24204754593 -1.2168551866 0 0.1941197234 -0.97590575165 0 
0.38077953469 -0.91928311693 0 0.4747933404 -1.1462525217 0 0.4747933404 -1.1462525217 0 
0.38077953469 -0.91928311693 0 0.55280620201 -0.82733294756 0 0.68929309308 -1.0316000153 0 
0.68929309308 -1.0316000153 0 0.55280620201 -0.82733294756 0 0.703588837 -0.703588837 0 
0.87730369874 -0.87730369874 0 0.87730369874 -0.87730369874 0 0.703588837 -0.703588837 0 
0.82733294756 -0.55280620201 0 1.0316000153 -0.68929309308 0 1.0316000153 -0.68929309308 0 
0.82733294756 -0.55280620201 0 0.91928311693 -0.38077953469 0 1.1462525217 -0.4747933404 0 
1.1462525217 -0.4747933404 0 0.91928311693 -0.38077953469 0 0.97590575165 -0.1941197234 0 
1.2168551866 -0.24204754593 0 1.2168551866 -0.24204754593 0 0.97590575165 -0.1941197234 0 
0.99502487562 -1.8278310435e-16 0 1.2406947891 -2.2791193533e-16 0 1.2406947891 -2.2791193533e-16 0 
0.99502487562 -1.8278310435e-16 0 0.97590575165 0.1941197234 0 1.2168551866 0.24204754593 0 
1.2168551866 0.24204754593 0 0.97590575165 0.1941197234 0 0.91928311693 0.38077953469 0 
1.1462525217 0.4747933404 0 1.1462525217 0.4747933404 0 0.91928311693 0.38077953469 0 
0.82733294756 0.55280620201 0 1.0316000153 0.68929309308 0 1.0316000153 0.68929309308 0 
0.82733294756 0.55280620201 0 0.703588837 0.703588837 0 0.87730369874 0.87730369874 0 
0.87730369874 0.87730369874 0 0.703588837 0.703588837 0 0.55280620201 0.82733294756 0 
0.68929309308 1.0316000153 0 0.68929309308 1.0316000153 0 0.55280620201 0.82733294756 0 
0.38077953469 0.91928311693 0 0.4747933404 1.1462525217 0 0.4747933404 1.1462525217 0 
0.38077953469 0.91928311693 0 0.1941197234 0.97590575165 0 0.24204754593 1.2168551866 0 
0.24204754593 1.2168551866 0 0.1941197234 0.97590575165 0 2.437108058e-16 0.99502487562 0 
3.0388258043e-16 1.2406947891 0 0 0.99502487562 0 0 0.83056478405 0 
-0.16203515118 0.81460571462 0 -0.1941197234 0.97590575165 0 -0.1941197234 0.97590575165 0 
-0.16203515118 0.81460571462 0 -0.31784338236 0.76734180441 0 -0.38077953469 0.91928311693 0 
-0.38077953469 0.91928311693 0 -0.31784338236 0.76734180441 0 -0.46143707061 0.69058937899 0 
-0.55280620201 0.82733294756 0 -0.55280620201 0.82733294756 0 -0.46143707061 0.69058937899 0 
-0.58729799102 0.58729799102 0 -0.703588837 0.703588837 0 -0.703588837 0.703588837 0 
-0.58729799102 0.58729799102 0 -0.69058937899 0.46143707061 0 -0.82733294756 0.55280620201 0 
-0.82733294756 0.55280620201 0 -0.69058937899 0.46143707061 0 -0.76734180441 0.31784338236 0 
-0.91928311693 0.38077953469 0 -0.91928311693 0.38077953469 0 -0.76734180441 0.31784338236 0 