# vtk DataFile Version 4.0
vtk output
ASCII
DATASET UNSTRUCTURED_GRID
POINTS 1280 float
0.01 0 0 0.209 0 0 0.204984 0.0407739 0 
0.00980785 0.0019509 0 0.00980785 0.0019509 0 0.204984 0.0407739 0 
0.193091 0.0799808 0 0.0092388 0.00382683 0 0.0092388 0.00382683 0 
0.193091 0.0799808 0 0.173777 0.116114 0 0.0083147 0.0055557 0 
0.0083147 0.0055557 0 0.173777 0.116114 0 0.147785 0.147785 0 
0.00707107 0.00707107 0 0.00707107 0.00707107 0 0.147785 0.147785 0 
0.116114 0.173777 0 0.0055557 0.0083147 0 0.0055557 0.0083147 0 
0.116114 0.173777 0 0.0799808 0.193091 0 0.00382683 0.0092388 0 
0.00382683 0.0092388 0 0.0799808 0.193091 0 0.0407739 0.204984 0 
0.0019509 0.00980785 0 0.0019509 0.00980785 0 0.0407739 0.204984 0 
1.27976e-17 0.209 0 6.12323e-19 0.01 0 6.12323e-19 0.01 0 
1.27976e-17 0.209 0 -0.0407739 0.204984 0 -0.0019509 0.00980785 0 
-0.0019509 0.00980785 0 -0.0407739 0.204984 0 -0.0799808 0.193091 0 
-0.00382683 0.0092388 0 -0.00382683 0.0092388 0 -0.0799808 0.193091 0 
-0.116114 0.173777 0 -0.0055557 0.0083147 0 -0.0055557 0.0083147 0 
-0.116114 0.173777 0 -0.147785 0.147785 0 -0.00707107 0.00707107 0 
-0.00707107 0.00707107 0 -0.147785 0.147785 0 -0.173777 0.116114 0 
-0.0083147 0.0055557 0 -0.0083147 0.0055557 0 -0.173777 0.116114 0 
-0.193091 0.0799808 0 -0.0092388 0.00382683 0 -0.0092388 0.00382683 0 
-0.193091 0.0799808 0 -0.204984 0.0407739 0 -0.00980785 0.0019509 0 
-0.00980785 0.0019509 0 -0.204984 0.0407739 0 -0.209 2.55951e-17 0 
-0.01 1.22465e-18 0 -0.01 1.22465e-18 0 -0.209 2.55951e-17 0 
-0.204984 -0.0407739 0 -0.00980785 -0.0019509 0 -0.00980785 -0.0019509 0 
-0.204984 -0.0407739 0 -0.193091 -0.0799808 0 -0.0092388 -0.00382683 0 
-0.0092388 -0.00382683 0 -0.193091 -0.0799808 0 -0.173777 -0.116114 0 
-0.0083147 -0.0055557 0 -0.0083147 -0.0055557 0 -0.173777 -0.116114 0 
-0.147785 -0.147785 0 -0.00707107 -0.00707107 0 -0.00707107 -0.00707107 0 
-0.147785 -0.147785 0 -0.116114 -0.173777 0 -0.0055557 -0.0083147 0 
-0.0055557 -0.0083147 0 -0.116114 -0.173777 0 -0.0799808 -0.193091 0 
-0.00382683 -0.0092388 0 -0.00382683 -0.0092388 0 -0.0799808 -0.193091 0 
-0.0407739 -0.204984 0 -0.0019509 -0.00980785 0 -0.0019509 -0.00980785 0 
-0.0407739 -0.204984 0 -3.83927e-17 -0.209 0 -1.83697e-18 -0.01 0 
-1.83697e-18 -0.01 0 -3.83927e-17 -0.209 0 0.0407739 -0.204984 0 
0.0019509 -0.00980785 0 0.0019509 -0.00980785 0 0.0407739 -0.204984 0 
0.0799808 -0.193091 0 0.00382683 -0.0092388 0 0.00382683 -0.0092388 0 
0.0799808 -0.193091 0 0.116114 -0.173777 0 0.0055557 -0.0083147 0 
0.0055557 -0.0083147 0 0.116114 -0.173777 0 0.147785 -0.147785 0 
0.00707107 -0.00707107 0 0.00707107 -0.00707107 0 0.147785 -0.147785 0 
0.173777 -0.116114 0 0.0083147 -0.0055557 0 0.0083147 -0.0055557 0 
0.173777 -0.116114 0 0.193091 -0.0799808 0 0.0092388 -0.00382683 0 
0.0092388 -0.00382683 0 0.193091 -0.0799808 0 0.204984 -0.0407739 0 
0.00980785 -0.0019509 0 0.00980785 -0.0019509 0 0.204984 -0.0407739 0 
0.209 -5.11902e-17 0 0.01 -2.44929e-18 0 0.209 0 0 
0.408 0 0 0.40016 0.0795969 0 0.204984 0.0407739 0 
0.204984 0.0407739 0 0.40016 0.0795969 0 0.376943 0.156135 0 
0.193091 0.0799808 0 0.193091 0.0799808 0 0.376943 0.156135 0 
0.33924 0.226673 0 0.173777 0.116114 0 0.173777 0.116114 0 
0.33924 0.226673 0 0.2885 0.2885 0 0.147785 0.147785 0 
0.147785 0.147785 0 0.2885 0.2885 0 0.226673 0.33924 0 
0.116114 0.173777 0 0.116114 0.173777 0 0.226673 0.33924 0 
0.156135 0.376943 0 0.0799808 0.193091 0 0.0799808 0.193091 0 
0.156135 0.376943 0 0.0795969 0.40016 0 0.0407739 0.204984 0 
0.0407739 0.204984 0 0.0795969 0.40016 0 2.49828e-17 0.408 0 
1.27976e-17 0.209 0 1.27976e-17 0.209 0 2.49828e-17 0.408 0 
-0.0795969 0.40016 0 -0.0407739 0.204984 0 -0.0407739 0.204984 0 
-0.0795969 0.40016 0 -0.156135 0.376943 0 -0.0799808 0.193091 0 
-0.0799808 0.193091 0 -0.156135 0.376943 0 -0.226673 0.33924 0 
-0.116114 0.173777 0 -0.116114 0.173777 0 -0.226673 0.33924 0 
-0.2885 0.2885 0 -0.147785 0.147785 0 -0.147785 0.147785 0 
-0.2885 0.2885 0 -0.33924 0.226673 0 -0.173777 0.116114 0 
-0.173777 0.116114 0 -0.33924 0.226673 0 -0.376943 0.156135 0 
-0.193091 0.0799808 0 -0.193091 0.0799808 0 -0.376943 0.156135 0 
-0.40016 0.0795969 0 -0.204984 0.0407739 0 -0.204984 0.0407739 0 
-0.40016 0.0795969 0 -0.408 4.99656e-17 0 -0.209 2.55951e-17 0 
-0.209 2.55951e-17 0 -0.408 4.99656e-17 0 -0.40016 -0.0795969 0 
-0.204984 -0.0407739 0 -0.204984 -0.0407739 0 -0.40016 -0.0795969 0 
-0.376943 -0.156135 0 -0.193091 -0.0799808 0 -0.193091 -0.0799808 0 
-0.376943 -0.156135 0 -0.33924 -0.226673 0 -0.173777 -0.116114 0 
-0.173777 -0.116114 0 -0.33924 -0.226673 0 -0.2885 -0.2885 0 
-0.147785 -0.147785 0 -0.147785 -0.147785 0 -0.2885 -0.2885 0 
-0.226673 -0.33924 0 -0.116114 -0.173777 0 -0.116114 -0.173777 0 
-0.226673 -0.33924 0 -0.156135 -0.376943 0 -0.0799808 -0.193091 0 
-0.0799808 -0.193091 0 -0.156135 -0.376943 0 -0.0795969 -0.40016 0 
-0.0407739 -0.204984 0 -0.0407739 -0.204984 0 -0.0795969 -0.40016 0 
-7.49484e-17 -0.408 0 -3.83927e-17 -0.209 0 -3.83927e-17 -0.209 0 
-7.49484e-17 -0.408 0 0.0795969 -0.40016 0 0.0407739 -0.204984 0 
0.0407739 -0.204984 0 0.0795969 -0.40016 0 0.156135 -0.376943 0 
0.0799808 -0.193091 0 0.0799808 -0.193091 0 0.156135 -0.376943 0 
0.226673 -0.33924 0 0.116114 -0.173777 0 0.116114 -0.173777 0 
0.226673 -0.33924 0 0.2885 -0.2885 0 0.147785 -0.147785 0 
0.147785 -0.147785 0 0.2885 -0.2885 0 0.33924 -0.226673 0 
0.173777 -0.116114 0 0.173777 -0.116114 0 0.33924 -0.226673 0 
0.376943 -0.156135 0 0.193091 -0.0799808 0 0.193091 -0.0799808 0 
0.376943 -0.156135 0 0.40016 -0.0795969 0 0.204984 -0.0407739 0 
0.204984 -0.0407739 0 0.40016 -0.0795969 0 0.408 -9.99312e-17 0 
0.209 -5.11902e-17 0 0.408 0 0 0.607 0 0 
0.595337 0.11842 0 0.40016 0.0795969 0 0.40016 0.0795969 0 
0.595337 0.11842 0 0.560795 0.232289 0 0.376943 0.156135 0 
0.376943 0.156135 0 0.560795 0.232289 0 0.504702 0.337231 0 
0.33924 0.226673 0 0.33924 0.226673 0 0.504702 0.337231 0 
0.429214 0.429214 0 0.2885 0.2885 0 0.2885 0.2885 0 
0.429214 0.429214 0 0.337231 0.504702 0 0.226673 0.33924 0 
0.226673 0.33924 0 0.337231 0.504702 0 0.232289 0.560795 0 
0.156135 0.376943 0 0.156135 0.376943 0 0.232289 0.560795 0 
0.11842 0.595337 0 0.0795969 0.40016 0 0.0795969 0.40016 0 
0.11842 0.595337 0 3.7168e-17 0.607 0 2.49828e-17 0.408 0 
2.49828e-17 0.408 0 3.7168e-17 0.607 0 -0.11842 0.595337 0 
-0.0795969 0.40016 0 -0.0795969 0.40016 0 -0.11842 0.595337 0 
-0.232289 0.560795 0 -0.156135 0.376943 0 -0.156135 0.376943 0 
-0.232289 0.560795 0 -0.337231 0.504702 0 -0.226673 0.33924 0 
-0.226673 0.33924 0 -0.337231 0.504702 0 -0.429214 0.429214 0 
-0.2885 0.2885 0 -0.2885 0.2885 0 -0.429214 0.429214 0 
-0.504702 0.337231 0 -0.33924 0.226673 0 -0.33924 0.226673 0 
-0.504702 0.337231 0 -0.560795 0.232289 0 -0.376943 0.156135 0 
-0.376943 0.156135 0 -0.560795 0.232289 0 -0.595337 0.11842 0 
-0.40016 0.0795969 0 -0.40016 0.0795969 0 -0.595337 0.11842 0 
-0.607 7.43361e-17 0 -0.408 4.99656e-17 0 -0.408 4.99656e-17 0 
-0.607 7.43361e-17 0 -0.595337 -0.11842 0 -0.40016 -0.0795969 0 
-0.40016 -0.0795969 0 -0.595337 -0.11842 0 -0.560795 -0.232289 0 
-0.376943 -0.156135 0 -0.376943 -0.156135 0 -0.560795 -0.232289 0 
-0.504702 -0.337231 0 -0.33924 -0.226673 0 -0.33924 -0.226673 0 
-0.504702 -0.337231 0 -0.429214 -0.429214 0 -0.2885 -0.2885 0 
-0.2885 -0.2885 0 -0.429214 -0.429214 0 -0.337231 -0.504702 0 
-0.226673 -0.33924 0 -0.226673 -0.33924 0 -0.337231 -0.504702 0 
-0.232289 -0.560795 0 -0.156135 -0.376943 0 -0.156135 -0.376943 0 
-0.232289 -0.560795 0 -0.11842 -0.595337 0 -0.0795969 -0.40016 0 
-0.0795969 -0.40016 0 -0.11842 -0.595337 0 -1.11504e-16 -0.607 0 
-7.49484e-17 -0.408 0 -7.49484e-17 -0.408 0 -1.11504e-16 -0.607 0 
0.11842 -0.595337 0 0.0795969 -0.40016 0 0.0795969 -0.40016 0 
0.11842 -0.595337 0 0.232289 -0.560795 0 0.156135 -0.376943 0 
0.156135 -0.376943 0 0.232289 -0.560795 0 0.337231 -0.504702 0 
0.226673 -0.33924 0 0.226673 -0.33924 0 0.337231 -0.504702 0 
0.429214 -0.429214 0 0.2885 -0.2885 0 0.2885 -0.2885 0 
0.429214 -0.429214 0 0.504702 -0.337231 0 0.33924 -0.226673 0 
0.33924 -0.226673 0 0.504702 -0.337231 0 0.560795 -0.232289 0 
0.376943 -0.156135 0 0.376943 -0.156135 0 0.560795 -0.232289 0 
0.595337 -0.11842 0 0.40016 -0.0795969 0 0.40016 -0.0795969 0 
0.595337 -0.11842 0 0.607 -1.48672e-16 0 0.408 -9.99312e-17 0 
0.607 0 0 0.806 0 0 0.790513 0.157243 0 
0.595337 0.11842 0 0.595337 0.11842 0 0.790513 0.157243 0 
0.744647 0.308443 0 0.560795 0.232289 0 0.560795 0.232289 0 
0.744647 0.308443 0 0.670165 0.44779 0 0.504702 0.337231 0 
0.504702 0.337231 0 0.670165 0.44779 0 0.569928 0.569928 0 
0.429214 0.429214 0 0.429214 0.429214 0 0.569928 0.569928 0 
0.44779 0.670165 0 0.337231 0.504702 0 0.337231 0.504702 0 
0.44779 0.670165 0 0.308443 0.744647 0 0.232289 0.560795 0 
0.232289 0.560795 0 0.308443 0.744647 0 0.157243 0.790513 0 
0.11842 0.595337 0 0.11842 0.595337 0 0.157243 0.790513 0 
4.93533e-17 0.806 0 3.7168e-17 0.607 0 3.7168e-17 0.607 0 
4.93533e-17 0.806 0 -0.157243 0.790513 0 -0.11842 0.595337 0 
-0.11842 0.595337 0 -0.157243 0.790513 0 -0.308443 0.744647 0 
-0.232289 0.560795 0 -0.232289 0.560795 0 -0.308443 0.744647 0 
-0.44779 0.670165 0 -0.337231 0.504702 0 -0.337231 0.504702 0 
-0.44779 0.670165 0 -0.569928 0.569928 0 -0.429214 0.429214 0 
-0.429214 0.429214 0 -0.569928 0.569928 0 -0.670165 0.44779 0 
-0.504702 0.337231 0 -0.504702 0.337231 0 -0.670165 0.44779 0 
-0.744647 0.308443 0 -0.560795 0.232289 0 -0.560795 0.232289 0 
-0.744647 0.308443 0 -0.790513 0.157243 0 -0.595337 0.11842 0 
-0.595337 0.11842 0 -0.790513 0.157243 0 -0.806 9.87065e-17 0 
-0.607 7.43361e-17 0 -0.607 7.43361e-17 0 -0.806 9.87065e-17 0 
-0.790513 -0.157243 0 -0.595337 -0.11842 0 -0.595337 -0.11842 0 
-0.790513 -0.157243 0 -0.744647 -0.308443 0 -0.560795 -0.232289 0 
-0.560795 -0.232289 0 -0.744647 -0.308443 0 -0.670165 -0.44779 0 
-0.504702 -0.337231 0 -0.504702 -0.337231 0 -0.670165 -0.44779 0 
-0.569928 -0.569928 0 -0.429214 -0.429214 0 -0.429214 -0.429214 0 
[...]
CELL_DATA 320
FIELD FieldData 1
velocityAvgCell 3 320 double
-4.83678 52.14 0 -14.9101 50.1361 0 -24.3988 46.2055 0 
-32.9384 40.4994 0 -40.2007 33.2369 0 -45.9066 24.6972 0 
-49.8369 15.2084 0 -51.8406 5.13525 0 -51.8406 -5.13525 0 
-49.8369 -15.2084 0 -45.9066 -24.6972 0 -40.2007 -33.2369 0 
-32.9384 -40.4994 0 -24.3988 -46.2055 0 -14.9101 -50.1361 0 
-4.83678 -52.14 0 5.43391 -52.1402 0 15.5073 -50.1366 0 
24.9963 -46.2063 0 33.5363 -40.5003 0 40.799 -33.2378 0 
46.5052 -24.698 0 50.4358 -15.209 0 52.4396 -5.13544 0 
52.4396 5.13544 0 50.4358 15.209 0 46.5052 24.698 0 
40.799 33.2378 0 33.5363 40.5003 0 24.9963 46.2063 0 
15.5073 50.1366 0 5.43391 52.1402 0 -0.0560451 3.60032 0 
-0.751565 3.46178 0 -1.40667 3.19025 0 -1.99619 2.79615 0 
-2.49749 2.29466 0 -2.89134 1.70504 0 -3.16261 1.04993 0 
-3.3009 0.354516 0 -3.3009 -0.354516 0 -3.16261 -1.04993 0 
-2.89134 -1.70504 0 -2.49749 -2.29466 0 -1.99619 -2.79615 0 
-1.40667 -3.19025 0 -0.751565 -3.46178 0 -0.0560451 -3.60032 0 
0.653174 -3.60051 0 1.34884 -3.46232 0 2.0042 -3.19105 0 
2.59407 -2.7971 0 3.09575 -2.2956 0 3.48995 -1.70584 0 
3.76149 -1.05047 0 3.89992 -0.354704 0 3.89992 0.354704 0 
3.76149 1.05047 0 3.48995 1.70584 0 3.09575 2.2956 0 
2.59407 2.7971 0 2.0042 3.19105 0 1.34884 3.46232 0 
0.653174 3.60051 0 0.0977066 2.03925 0 -0.296219 1.96071 0 
-0.667223 1.80684 0 -1.00106 1.58359 0 -1.28493 1.29954 0 
-1.50794 0.965592 0 -1.66154 0.594588 0 -1.73984 0.200764 0 
-1.73984 -0.200764 0 -1.66154 -0.594588 0 -1.50794 -0.965592 0 
-1.28493 -1.29954 0 -1.00106 -1.58359 0 -0.667223 -1.80684 0 
-0.296219 -1.96071 0 0.0977066 -2.03925 0 0.499423 -2.03944 0 
0.893492 -1.96124 0 1.26476 -1.80765 0 1.59895 -1.58454 0 
1.88319 -1.30048 0 2.10655 -0.966393 0 2.26041 -0.595123 0 
2.33885 -0.200952 0 2.33885 0.200952 0 2.26041 0.595123 0 
2.10655 0.966393 0 1.88319 1.30048 0 1.59895 1.58454 0 
1.26476 1.80765 0 0.893492 1.96124 0 0.499423 2.03944 0 
0.157021 1.43702 0 -0.120555 1.38162 0 -0.381961 1.27316 0 
-0.617166 1.11581 0 -0.817151 0.915637 0 -0.974252 0.68033 0 
-1.08245 0.418924 0 -1.13761 0.14145 0 -1.13761 -0.14145 0 
-1.08245 -0.418924 0 -0.974252 -0.68033 0 -0.817151 -0.915637 0 
-0.617166 -1.11581 0 -0.381961 -1.27316 0 -0.120555 -1.38162 0 
0.157021 -1.43702 0 0.440108 -1.43721 0 0.717828 -1.38216 0 
0.9795 -1.27396 0 1.21505 -1.11675 0 1.41541 -0.916581 0 
1.57286 -0.68113 0 1.68133 -0.419459 0 1.73663 -0.141638 0 
1.73663 0.141638 0 1.68133 0.419459 0 1.57286 0.68113 0 
1.41541 0.916581 0 1.21505 1.11675 0 0.9795 1.27396 0 
0.717828 1.38216 0 0.440108 1.43721 0 0.188995 1.11238 0 
-0.025861 1.06946 0 -0.228186 0.985464 0 -0.41022 0.863645 0 
-0.564987 0.708691 0 -0.68656 0.526555 0 -0.770288 0.32423 0 
-0.812968 0.109475 0 -0.812968 -0.109475 0 -0.770288 -0.32423 0 
-0.68656 -0.526555 0 -0.564987 -0.708691 0 -0.41022 -0.863645 0 
-0.228186 -0.985464 0 -0.025861 -1.06946 0 0.188995 -1.11238 0 
0.408134 -1.11257 0 0.623134 -1.06999 0 0.825725 -0.986265 0 
1.00811 -0.86459 0 1.16325 -0.709635 0 1.28517 -0.527356 0 
1.36916 -0.324765 0 1.41199 -0.109663 0 1.41199 0.109663 0 
1.36916 0.324765 0 1.28517 0.527356 0 1.16325 0.709635 0 
1.00811 0.86459 0 0.825725 0.986265 0 0.623134 1.06999 0 
0.408134 1.11257 0 0.209095 0.908306 0 0.0336662 0.873223 0 
-0.131519 0.804613 0 -0.280128 0.705128 0 -0.406469 0.578599 0 
-0.505709 0.429888 0 -0.574053 0.264703 0 -0.60889 0.0893756 0 
-0.60889 -0.0893756 0 -0.574053 -0.264703 0 -0.505709 -0.429888 0 
-0.406469 -0.578599 0 -0.280128 -0.705128 0 -0.131519 -0.804613 0 
0.0336662 -0.873223 0 0.209095 -0.908306 0 0.388034 -0.908493 0 
0.563607 -0.873758 0 0.729058 -0.805413 0 0.878014 -0.706072 0 
1.00473 -0.579543 0 1.10432 -0.430689 0 1.17293 -0.265238 0 
1.20791 -0.0895635 0 1.20791 0.0895635 0 1.17293 0.265238 0 
1.10432 0.430689 0 1.00473 0.579543 0 0.878014 0.706072 0 
0.729058 0.805413 0 0.563607 0.873758 0 0.388034 0.908493 0 
0.222929 0.767852 0 0.074635 0.738167 0 -0.0649894 0.680144 0 
-0.190594 0.59603 0 -0.297372 0.489065 0 -0.38124 0.363358 0 
-0.438997 0.223734 0 -0.468437 0.0755421 0 -0.468437 -0.0755421 0 
-0.438997 -0.223734 0 -0.38124 -0.363358 0 -0.297372 -0.489065 0 
-0.190594 -0.59603 0 -0.0649894 -0.680144 0 0.074635 -0.738167 0 
0.222929 -0.767852 0 0.374201 -0.76804 0 0.522638 -0.738702 0 
0.662528 -0.680945 0 0.78848 -0.596975 0 0.895633 -0.490009 0 
0.979849 -0.364159 0 1.03787 -0.224269 0 1.06745 -0.07573 0 
1.06745 0.07573 0 1.03787 0.224269 0 0.979849 0.364159 0 
0.895633 0.490009 0 0.78848 0.596975 0 0.662528 0.680945 0 
0.522638 0.738702 0 0.374201 0.76804 0 0.233041 0.665176 0 
0.104584 0.639437 0 -0.0163542 0.589154 0 -0.125142 0.516277 0 
-0.217618 0.423613 0 -0.29025 0.314723 0 -0.340267 0.193785 0 
-0.365761 0.0654295 0 -0.365761 -0.0654295 0 -0.340267 -0.193785 0 
-0.29025 -0.314723 0 -0.217618 -0.423613 0 -0.125142 -0.516277 0 
-0.0163542 -0.589154 0 0.104584 -0.639437 0 0.233041 -0.665176 0 
0.364088 -0.665364 0 0.492689 -0.639972 0 0.613893 -0.589955 0 
0.723028 -0.517221 0 0.81588 -0.424557 0 0.888859 -0.315524 0 
0.939141 -0.19432 0 0.964779 -0.0656173 0 0.964779 0.0656173 0 
0.939141 0.19432 0 0.888859 0.315524 0 0.81588 0.424557 0 
0.723028 0.517221 0 0.613893 0.589955 0 0.492689 0.639972 0 
0.364088 0.665364 0 0.240761 0.5868 0 0.127446 0.564072 0 
0.020771 0.519698 0 -0.07518 0.455398 0 -0.156739 0.373651 0 
-0.220794 0.277598 0 -0.264903 0.170923 0 -0.287385 0.0577101 0 
-0.287385 -0.0577101 0 -0.264903 -0.170923 0 -0.220794 -0.277598 0 
-0.156739 -0.373651 0 -0.07518 -0.455398 0 0.020771 -0.519698 0 
0.127446 -0.564072 0 0.240761 -0.5868 0 0.356369 -0.586988 0 
0.469827 -0.564607 0 0.576768 -0.520499 0 0.673066 -0.456342 0 
0.755001 -0.374595 0 0.819403 -0.278399 0 0.863777 -0.171458 0 
0.886403 -0.0578979 0 0.886403 0.0578979 0 0.863777 0.171458 0 
0.819403 0.278399 0 0.755001 0.374595 0 0.673066 0.456342 0 
0.576768 0.520499 0 0.469827 0.564607 0 0.356369 0.586988 0 
0.246849 0.524989 0 0.145476 0.504637 0 0.0500494 0.464922 0 
-0.0357779 0.407386 0 -0.108728 0.334249 0 -0.166018 0.24832 0 
-0.205467 0.152894 0 -0.225574 0.0516222 0 -0.225574 -0.0516222 0 
-0.205467 -0.152894 0 -0.166018 -0.24832 0 -0.108728 -0.334249 0 
-0.0357779 -0.407386 0 0.0500494 -0.464922 0 0.145476 -0.504637 0 
0.246849 -0.524989 0 0.350281 -0.525177 0 0.451798 -0.505172 0 
0.547489 -0.465723 0 0.633664 -0.408331 0 0.706989 -0.335193 0 
0.764627 -0.24912 0 0.804341 -0.153429 0 0.824592 -0.0518101 0 
0.824592 0.0518101 0 0.804341 0.153429 0 0.764627 0.24912 0 
0.706989 0.335193 0 0.633664 0.408331 0 0.547489 0.465723 0 
0.451798 0.505172 0 0.350281 0.525177 0 
POINT_DATA 1280
FIELD FieldData 3
velocityEdge 3 1280 double
0.3 99.9706 0 0.3 4.75533 0 -0.639137 4.72136 0 
-19.2147 98.1071 0 -19.2035 98.0507 0 -0.627902 4.66488 0 
-1.54168 4.44622 0 -37.979 92.4137 0 -37.9582 92.3636 0 
-1.52092 4.3961 0 -2.37239 3.99951 0 -55.2712 83.1681 0 
-55.2441 83.1276 0 -2.34526 3.95892 0 -3.09893 3.39893 0 
-70.4263 70.7263 0 -70.397 70.697 0 -3.06957 3.36957 0 
-3.69322 2.66818 0 -82.8619 55.567 0 -82.8347 55.5489 0 
-3.66609 2.65006 0 -4.1325 1.836 0 -92.1 38.2733 0 
-92.0792 38.2647 0 -4.11174 1.8274 0 -4.40022 0.934932 0 
-97.786 19.5105 0 -97.7748 19.5083 0 -4.38899 0.932697 0 
-4.48661 2.74726e-16 0 -99.7019 6.10498e-15 0 -99.7019 6.10498e-15 0 
-4.48661 2.74726e-16 0 -4.38899 -0.932697 0 -97.7748 -19.5083 0 
-97.786 -19.5105 0 -4.40022 -0.934932 0 -4.11174 -1.8274 0 
-92.0792 -38.2647 0 -92.1 -38.2733 0 -4.1325 -1.836 0 
-3.66609 -2.65006 0 -82.8347 -55.5489 0 -82.8619 -55.567 0 
-3.69322 -2.66818 0 -3.06957 -3.36957 0 -70.397 -70.697 0 
-70.4263 -70.7263 0 -3.09893 -3.39893 0 -2.34526 -3.95892 0 
-55.2441 -83.1276 0 -55.2712 -83.1681 0 -2.37239 -3.99951 0 
-1.52092 -4.3961 0 -37.9582 -92.3636 0 -37.979 -92.4137 0 
-1.54168 -4.44622 0 -0.627902 -4.66488 0 -19.2035 -98.0507 0 
-19.2147 -98.1071 0 -0.639137 -4.72136 0 0.3 -4.75533 0 
0.3 -99.9706 0 0.3 -100.029 0 0.3 -4.81405 0 
1.22776 -4.66414 0 19.8033 -98.0499 0 19.8146 -98.1064 0 
1.23899 -4.72062 0 2.12036 -4.39474 0 38.5577 -92.3622 0 
38.5784 -92.4123 0 2.14112 -4.44485 0 2.94408 -3.95714 0 
55.8429 -83.1258 0 55.87 -83.1664 0 2.9712 -3.99773 0 
3.66765 -3.36765 0 70.995 -70.695 0 71.0244 -70.7244 0 
3.697 -3.397 0 4.26343 -2.64828 0 83.4321 -55.5471 0 
83.4592 -55.5652 0 4.29055 -2.6664 0 4.70845 -1.82604 0 
92.6759 -38.2634 0 92.6967 -38.272 0 4.72921 -1.83464 0 
4.98528 -0.931961 0 98.3711 -19.5075 0 98.3823 -19.5098 0 
4.99652 -0.934196 0 5.08277 -9.33689e-16 0 100.298 -1.84245e-14 0 
100.298 -1.84245e-14 0 5.08277 -9.33689e-16 0 4.99652 0.934196 0 
98.3823 19.5098 0 98.3711 19.5075 0 4.98528 0.931961 0 
4.72921 1.83464 0 92.6967 38.272 0 92.6759 38.2634 0 
4.70845 1.82604 0 4.29055 2.6664 0 83.4592 55.5652 0 
83.4321 55.5471 0 4.26343 2.64828 0 3.697 3.397 0 
71.0244 70.7244 0 70.995 70.695 0 3.66765 3.36765 0 
2.9712 3.99773 0 55.87 83.1664 0 55.8429 83.1258 0 
2.94408 3.95714 0 2.14112 4.44485 0 38.5784 92.4123 0 
38.5577 92.3622 0 2.12036 4.39474 0 1.23899 4.72062 0 
19.8146 98.1064 0 19.8033 98.0499 0 1.22776 4.66414 0 
0.3 4.81405 0 0.3 100.029 0 0.3 4.75533 0 
0.3 2.42162 0 -0.183853 2.43249 0 -0.639137 4.72136 0 
-0.627902 4.66488 0 -0.172618 2.37601 0 -0.648611 2.29015 0 
-1.54168 4.44622 0 -1.52092 4.3961 0 -0.627852 2.24003 0 
-1.07585 2.0591 0 -2.37239 3.99951 0 -2.34526 3.95892 0 
-1.04872 2.01851 0 -1.44875 1.74875 0 -3.09893 3.39893 0 
-3.06957 3.36957 0 -1.41939 1.71939 0 -1.75281 1.37164 0 
-3.69322 2.66818 0 -3.66609 2.65006 0 -1.72568 1.35352 0 
-1.97643 0.942929 0 -4.1325 1.836 0 -4.11174 1.8274 0 
-1.95567 0.93433 0 -2.11135 0.479648 0 -4.40022 0.934932 0 
-4.38899 0.932697 0 -2.10012 0.477413 0 -2.1529 1.31827e-16 0 
-4.48661 2.74726e-16 0 -4.48661 2.74726e-16 0 -2.1529 1.31827e-16 0 
-2.10012 -0.477413 0 -4.38899 -0.932697 0 -4.40022 -0.934932 0 
-2.11135 -0.479648 0 -1.95567 -0.93433 0 -4.11174 -1.8274 0 
-4.1325 -1.836 0 -1.97643 -0.942929 0 -1.72568 -1.35352 0 
-3.66609 -2.65006 0 -3.69322 -2.66818 0 -1.75281 -1.37164 0 
-1.41939 -1.71939 0 -3.06957 -3.36957 0 -3.09893 -3.39893 0 
-1.44875 -1.74875 0 -1.04872 -2.01851 0 -2.34526 -3.95892 0 
-2.37239 -3.99951 0 -1.07585 -2.0591 0 -0.627852 -2.24003 0 
-1.52092 -4.3961 0 -1.54168 -4.44622 0 -0.648611 -2.29015 0 
-0.172618 -2.37601 0 -0.627902 -4.66488 0 -0.639137 -4.72136 0 
-0.183853 -2.43249 0 0.3 -2.42162 0 0.3 -4.75533 0 
0.3 -4.81405 0 0.3 -2.48034 0 0.772472 -2.37528 0 
1.22776 -4.66414 0 1.23899 -4.72062 0 0.783707 -2.43176 0 
1.22729 -2.23867 0 2.12036 -4.39474 0 2.14112 -4.44485 0 
1.24805 -2.28879 0 1.64754 -2.01673 0 2.94408 -3.95714 0 
2.9712 -3.99773 0 1.67466 -2.05732 0 2.01746 -1.71746 0 
3.66765 -3.36765 0 3.697 -3.397 0 2.04682 -1.74682 0 
2.32302 -1.35174 0 4.26343 -2.64828 0 4.29055 -2.6664 0 
2.35015 -1.36986 0 2.55239 -0.93297 0 4.70845 -1.82604 0 
4.72921 -1.83464 0 2.57315 -0.941569 0 2.69642 -0.476677 0 
4.98528 -0.931961 0 4.99652 -0.934196 0 2.70765 -0.478912 0 
2.74906 -5.04993e-16 0 5.08277 -9.33689e-16 0 5.08277 -9.33689e-16 0 
2.74906 -5.04993e-16 0 2.70765 0.478912 0 4.99652 0.934196 0 
4.98528 0.931961 0 2.69642 0.476677 0 2.57315 0.941569 0 
4.72921 1.83464 0 4.70845 1.82604 0 2.55239 0.93297 0 
2.35015 1.36986 0 4.29055 2.6664 0 4.26343 2.64828 0 
2.32302 1.35174 0 2.04682 1.74682 0 3.697 3.397 0 
3.66765 3.36765 0 2.01746 1.71746 0 1.67466 2.05732 0 
2.9712 3.99773 0 2.94408 3.95714 0 1.64754 2.01673 0 
1.24805 2.28879 0 2.14112 4.44485 0 2.12036 4.39474 0 
1.22729 2.23867 0 0.783707 2.43176 0 1.23899 4.72062 0 
1.22776 4.66414 0 0.772472 2.37528 0 0.3 2.48034 0 
0.3 4.81405 0 0.3 2.42162 0 0.3 1.61809 0 
-0.0270915 1.6444 0 -0.183853 2.43249 0 -0.172618 2.37601 0 
-0.0158567 1.58792 0 -0.341112 1.54778 0 -0.648611 2.29015 0 
-0.627852 2.24003 0 -0.320353 1.49766 0 -0.629428 1.39099 0 
-1.07585 2.0591 0 -1.04872 2.01851 0 -0.602304 1.35039 0 
-0.880561 1.18056 0 -1.44875 1.74875 0 -1.41939 1.71939 0 
-0.851204 1.1512 0 -1.08469 0.925223 0 -1.75281 1.37164 0 
-1.72568 1.35352 0 -1.05757 0.907099 0 -1.23406 0.63543 0 
-1.97643 0.942929 0 -1.95567 0.93433 0 -1.2133 0.626831 0 
-1.32326 0.322886 0 -2.11135 0.479648 0 -2.10012 0.477413 0 
-1.31202 0.320652 0 -1.34937 8.26251e-17 0 -2.1529 1.31827e-16 0 
-2.1529 1.31827e-16 0 -1.34937 8.26251e-17 0 -1.31202 -0.320652 0 
-2.10012 -0.477413 0 -2.11135 -0.479648 0 -1.32326 -0.322886 0 
-1.2133 -0.626831 0 -1.95567 -0.93433 0 -1.97643 -0.942929 0 
-1.23406 -0.63543 0 -1.05757 -0.907099 0 -1.72568 -1.35352 0 
-1.75281 -1.37164 0 -1.08469 -0.925223 0 -0.851204 -1.1512 0 
-1.41939 -1.71939 0 -1.44875 -1.74875 0 -0.880561 -1.18056 0 
-0.602304 -1.35039 0 -1.04872 -2.01851 0 -1.07585 -2.0591 0 
-0.629428 -1.39099 0 -0.320353 -1.49766 0 -0.627852 -2.24003 0 
-0.648611 -2.29015 0 -0.341112 -1.54778 0 -0.0158567 -1.58792 0 
-0.172618 -2.37601 0 -0.183853 -2.43249 0 -0.0270915 -1.6444 0 
0.3 -1.61809 0 0.3 -2.42162 0 0.3 -2.48034 0 
0.3 -1.6768 0 0.61571 -1.58718 0 0.772472 -2.37528 0 
0.783707 -2.43176 0 0.626945 -1.64366 0 0.919789 -1.4963 0 
1.22729 -2.23867 0 1.24805 -2.28879 0 0.940548 -1.54642 0 
1.20112 -1.34862 0 1.64754 -2.01673 0 1.67466 -2.05732 0 
1.22824 -1.38921 0 1.44928 -1.14928 0 2.01746 -1.71746 0 
2.04682 -1.74682 0 1.47864 -1.17864 0 1.65491 -0.905322 0 
2.32302 -1.35174 0 2.35015 -1.36986 0 1.68203 -0.923445 0 
1.81002 -0.625471 0 2.55239 -0.93297 0 2.57315 -0.941569 0 
1.83078 -0.63407 0 1.90832 -0.319915 0 2.69642 -0.476677 0 
2.70765 -0.478912 0 1.91956 -0.32215 0 1.94552 -3.57387e-16 0 
2.74906 -5.04993e-16 0 2.74906 -5.04993e-16 0 1.94552 -3.57387e-16 0 
1.91956 0.32215 0 2.70765 0.478912 0 2.69642 0.476677 0 
1.90832 0.319915 0 1.83078 0.63407 0 2.57315 0.941569 0 
2.55239 0.93297 0 1.81002 0.625471 0 1.68203 0.923445 0 
2.35015 1.36986 0 2.32302 1.35174 0 1.65491 0.905322 0 
1.47864 1.17864 0 2.04682 1.74682 0 2.01746 1.71746 0 
1.44928 1.14928 0 1.22824 1.38921 0 1.67466 2.05732 0 
1.64754 2.01673 0 1.20112 1.34862 0 0.940548 1.54642 0 
1.24805 2.28879 0 1.22729 2.23867 0 0.919789 1.4963 0 
0.626945 1.64366 0 0.783707 2.43176 0 0.772472 2.37528 0 
0.61571 1.58718 0 0.3 1.6768 0 0.3 2.48034 0 
0.3 1.61809 0 0.3 1.21134 0 0.0522618 1.24546 0 
-0.0270915 1.6444 0 -0.0158567 1.58792 0 0.0634966 1.18898 0 
-0.185455 1.17199 0 -0.341112 1.54778 0 -0.320353 1.49766 0 
-0.164696 1.12187 0 -0.403449 1.05279 0 -0.629428 1.39099 0 
-0.602304 1.35039 0 -0.376325 1.01219 0 -0.592945 0.892945 0 
-0.880561 1.18056 0 -0.851204 1.1512 0 -0.563587 0.863587 0 
-0.746492 0.699243 0 -1.08469 0.925223 0 -1.05757 0.907099 0 
-0.719369 0.68112 0 -0.858274 0.479773 0 -1.23406 0.63543 0 
-1.2133 0.626831 0 -0.837515 0.471174 0 -0.924323 0.243533 0 
-1.32326 0.322886 0 -1.31202 0.320652 0 -0.913089 0.241298 0 
-0.942619 5.77188e-17 0 -1.34937 8.26251e-17 0 -1.34937 8.26251e-17 0 
-0.942619 5.77188e-17 0 -0.913089 -0.241298 0 -1.31202 -0.320652 0 
-1.32326 -0.322886 0 -0.924323 -0.243533 0 -0.837515 -0.471174 0 
-1.2133 -0.626831 0 -1.23406 -0.63543 0 -0.858274 -0.479773 0 
-0.719369 -0.68112 0 -1.05757 -0.907099 0 -1.08469 -0.925223 0 
-0.746492 -0.699243 0 -0.563587 -0.863587 0 -0.851204 -1.1512 0 
-0.880561 -1.18056 0 -0.592945 -0.892945 0 -0.376325 -1.01219 0 
-0.602304 -1.35039 0 -0.629428 -1.39099 0 -0.403449 -1.05279 0 
-0.164696 -1.12187 0 -0.320353 -1.49766 0 -0.341112 -1.54778 0 
-0.185455 -1.17199 0 0.0634966 -1.18898 0 -0.0158567 -1.58792 0 
-0.0270915 -1.6444 0 0.0522618 -1.24546 0 0.3 -1.21134 0 
0.3 -1.61809 0 0.3 -1.6768 0 0.3 -1.27005 0 
0.536357 -1.18825 0 0.61571 -1.58718 0 0.626945 -1.64366 0 
0.547592 -1.24473 0 0.764132 -1.12051 0 0.919789 -1.4963 0 
0.940548 -1.54642 0 0.784891 -1.17063 0 0.975138 -1.01041 0 
1.20112 -1.34862 0 1.22824 -1.38921 0 1.00226 -1.05101 0 
1.16166 -0.861663 0 1.44928 -1.14928 0 1.47864 -1.17864 0 
1.19102 -0.891021 0 1.31671 -0.679343 0 1.65491 -0.905322 0 
1.68203 -0.923445 0 1.34383 -0.697466 0 1.43423 -0.469814 0 
1.81002 -0.625471 0 1.83078 -0.63407 0 1.45499 -0.478412 0 
1.50939 -0.240562 0 1.90832 -0.319915 0 1.91956 -0.32215 0 
1.52062 -0.242797 0 1.53877 -2.82668e-16 0 1.94552 -3.57387e-16 0 
1.94552 -3.57387e-16 0 1.53877 -2.82668e-16 0 1.52062 0.242797 0 
1.91956 0.32215 0 1.90832 0.319915 0 1.50939 0.240562 0 
1.45499 0.478412 0 1.83078 0.63407 0 1.81002 0.625471 0 
1.43423 0.469814 0 1.34383 0.697466 0 1.68203 0.923445 0 
1.65491 0.905322 0 1.31671 0.679343 0 1.19102 0.891021 0 
1.47864 1.17864 0 1.44928 1.14928 0 1.16166 0.861663 0 
1.00226 1.05101 0 1.22824 1.38921 0 1.20112 1.34862 0 
0.975138 1.01041 0 0.784891 1.17063 0 0.940548 1.54642 0 
0.919789 1.4963 0 0.764132 1.12051 0 0.547592 1.24473 0 
0.626945 1.64366 0 0.61571 1.58718 0 0.536357 1.18825 0 
0.3 1.27005 0 0.3 1.6768 0 0.3 1.21134 0 
0.3 0.965667 0 0.10019 1.00451 0 0.0522618 1.24546 0 
0.0634966 1.18898 0 0.111424 0.948033 0 -0.0914409 0.945022 0 
-0.185455 1.17199 0 -0.164696 1.12187 0 -0.0706817 0.894905 0 
-0.266962 0.848518 0 -0.403449 1.05279 0 -0.376325 1.01219 0 
-0.239838 0.807925 0 -0.41923 0.71923 0 -0.592945 0.892945 0 
-0.563587 0.863587 0 -0.389872 0.689872 0 -0.542225 0.562757 0 
-0.746492 0.699243 0 -0.719369 0.68112 0 -0.515101 0.544633 0 
-0.631305 0.385759 0 -0.858274 0.479773 0 -0.837515 0.471174 0 
-0.610546 0.37716 0 -0.683374 0.195605 0 -0.924323 0.243533 0 
-0.913089 0.241298 0 -0.672139 0.19337 0 -0.696949 4.26758e-17 0 
-0.942619 5.77188e-17 0 -0.942619 5.77188e-17 0 -0.696949 4.26758e-17 0 
-0.672139 -0.19337 0 -0.913089 -0.241298 0 -0.924323 -0.243533 0 
-0.683374 -0.195605 0 -0.610546 -0.37716 0 -0.837515 -0.471174 0 
-0.858274 -0.479773 0 -0.631305 -0.385759 0 -0.515101 -0.544633 0 
-0.719369 -0.68112 0 -0.746492 -0.699243 0 -0.542225 -0.562757 0 
-0.389872 -0.689872 0 -0.563587 -0.863587 0 -0.592945 -0.892945 0 
-0.41923 -0.71923 0 -0.239838 -0.807925 0 -0.376325 -1.01219 0 
-0.403449 -1.05279 0 -0.266962 -0.848518 0 -0.0706817 -0.894905 0 
-0.164696 -1.12187 0 -0.185455 -1.17199 0 -0.0914409 -0.945022 0 
0.111424 -0.948033 0 0.0634966 -1.18898 0 0.0522618 -1.24546 0 
0.10019 -1.00451 0 0.3 -0.965667 0 0.3 -1.21134 0 
0.3 -1.27005 0 0.3 -1.02438 0 0.488429 -0.947297 0 
0.536357 -1.18825 0 0.547592 -1.24473 0 0.499664 -1.00378 0 
0.670118 -0.893544 0 0.764132 -1.12051 0 0.784891 -1.17063 0 
0.690877 -0.943661 0 0.838651 -0.806148 0 0.975138 -1.01041 0 
1.00226 -1.05101 0 0.865774 -0.846741 0 0.987948 -0.687948 0 
1.16166 -0.861663 0 1.19102 -0.891021 0 1.01731 -0.717306 0 
1.11244 -0.542856 0 1.31671 -0.679343 0 1.34383 -0.697466 0 
1.13956 -0.560979 0 1.20726 -0.3758 0 1.43423 -0.469814 0 
1.45499 -0.478412 0 1.22802 -0.384399 0 1.26844 -0.192634 0 
1.50939 -0.240562 0 1.52062 -0.242797 0 1.27967 -0.194869 0 
1.2931 -2.37539e-16 0 1.53877 -2.82668e-16 0 1.53877 -2.82668e-16 0 
1.2931 -2.37539e-16 0 1.27967 0.194869 0 1.52062 0.242797 0 
1.50939 0.240562 0 1.26844 0.192634 0 1.22802 0.384399 0 
1.45499 0.478412 0 1.43423 0.469814 0 1.20726 0.3758 0 
1.13956 0.560979 0 1.34383 0.697466 0 1.31671 0.679343 0 
1.11244 0.542856 0 1.01731 0.717306 0 1.19102 0.891021 0 
1.16166 0.861663 0 0.987948 0.687948 0 0.865774 0.846741 0 
1.00226 1.05101 0 0.975138 1.01041 0 0.838651 0.806148 0 
0.690877 0.943661 0 0.784891 1.17063 0 0.764132 1.12051 0 
0.670118 0.893544 0 0.499664 1.00378 0 0.547592 1.24473 0 
0.536357 1.18825 0 0.488429 0.947297 0 0.3 1.02438 0 
0.3 1.27005 0 0.3 0.965667 0 0.3 0.801207 0 
0.132274 0.843214 0 0.10019 1.00451 0 0.111424 0.948033 0 
0.143509 0.786733 0 -0.0285047 0.793081 0 -0.0914409 0.945022 0 
-0.0706817 0.894905 0 -0.00774554 0.742963 0 -0.175593 0.711774 0 
-0.266962 0.848518 0 -0.239838 0.807925 0 -0.148469 0.671182 0 
-0.302939 0.602939 0 -0.41923 0.71923 0 -0.389872 0.689872 0 
-0.273581 0.573581 0 -0.405481 0.471387 0 -0.542225 0.562757 0 
-0.515101 0.544633 0 -0.378358 0.453264 0 -0.479364 0.322823 0 
-0.631305 0.385759 0 -0.610546 0.37716 0 -0.458604 0.314224 0 
-0.522074 0.163521 0 -0.683374 0.195605 0 -0.672139 0.19337 0 
-0.510839 0.161286 0 -0.532489 3.26055e-17 0 -0.696949 4.26758e-17 0 