# vtk DataFile Version 4.2
vtk output
ASCII
DATASET UNSTRUCTURED_GRID
POINTS 1280 float
0.01 0 0 0.209 0 0 0.204984 0.0407739 0 
0.00980785 0.0019509 0 0.00980785 0.0019509 0 0.204984 0.0407739 0 
0.193091 0.0799808 0 0.0092388 0.00382683 0 0.0092388 0.00382683 0 
0.193091 0.0799808 0 0.173777 0.116114 0 0.0083147 0.0055557 0 
0.0083147 0.0055557 0 0.173777 0.116114 0 0.147785 0.147785 0 
0.00707107 0.00707107 0 0.00707107 0.00707107 0 0.147785 0.147785 0 
0.116114 0.173777 0 0.0055557 0.0083147 0 0.0055557 0.0083147 0 
0.116114 0.173777 0 0.0799808 0.193091 0 0.00382683 0.0092388 0 
0.00382683 0.0092388 0 0.0799808 0.193091 0 0.0407739 0.204984 0 
0.0019509 0.00980785 0 0.0019509 0.00980785 0 0.0407739 0.204984 0 
1.27976e-17 0.209 0 6.12323e-19 0.01 0 6.12323e-19 0.01 0 
1.27976e-17 0.209 0 -0.0407739 0.204984 0 -0.0019509 0.00980785 0 
-0.0019509 0.00980785 0 -0.0407739 0.204984 0 -0.0799808 0.193091 0 
-0.00382683 0.0092388 0 -0.00382683 0.0092388 0 -0.0799808 0.193091 0 
-0.116114 0.173777 0 -0.0055557 0.0083147 0 -0.0055557 0.0083147 0 
-0.116114 0.173777 0 -0.147785 0.147785 0 -0.00707107 0.00707107 0 
-0.00707107 0.00707107 0 -0.147785 0.147785 0 -0.173777 0.116114 0 
-0.0083147 0.0055557 0 -0.0083147 0.0055557 0 -0.173777 0.116114 0 
-0.193091 0.0799808 0 -0.0092388 0.00382683 0 -0.0092388 0.00382683 0 
-0.193091 0.0799808 0 -0.204984 0.0407739 0 -0.00980785 0.0019509 0 
-0.00980785 0.0019509 0 -0.204984 0.0407739 0 -0.209 2.55951e-17 0 
-0.01 1.22465e-18 0 -0.01 1.22465e-18 0 -0.209 2.55951e-17 0 
-0.204984 -0.0407739 0 -0.00980785 -0.0019509 0 -0.00980785 -0.0019509 0 
-0.204984 -0.0407739 0 -0.193091 -0.0799808 0 -0.0092388 -0.00382683 0 
-0.0092388 -0.00382683 0 -0.193091 -0.0799808 0 -0.173777 -0.116114 0 
-0.0083147 -0.0055557 0 -0.0083147 -0.0055557 0 -0.173777 -0.116114 0 
-0.147785 -0.147785 0 -0.00707107 -0.00707107 0 -0.00707107 -0.00707107 0 
-0.147785 -0.147785 0 -0.116114 -0.173777 0 -0.0055557 -0.0083147 0 
-0.0055557 -0.0083147 0 -0.116114 -0.173777 0 -0.0799808 -0.193091 0 
-0.00382683 -0.0092388 0 -0.00382683 -0.0092388 0 -0.0799808 -0.193091 0 
-0.0407739 -0.204984 0 -0.0019509 -0.00980785 0 -0.0019509 -0.00980785 0 
-0.0407739 -0.204984 0 -3.83927e-17 -0.209 0 -1.83697e-18 -0.01 0 
-1.83697e-18 -0.01 0 -3.83927e-17 -0.209 0 0.0407739 -0.204984 0 
0.0019509 -0.00980785 0 0.0019509 -0.00980785 0 0.0407739 -0.204984 0 
0.0799808 -0.193091 0 0.00382683 -0.0092388 0 0.00382683 -0.0092388 0 
0.0799808 -0.193091 0 0.116114 -0.173777 0 0.0055557 -0.0083147 0 
0.0055557 -0.0083147 0 0.116114 -0.173777 0 0.147785 -0.147785 0 
0.00707107 -0.00707107 0 0.00707107 -0.00707107 0 0.147785 -0.147785 0 
0.173777 -0.116114 0 0.0083147 -0.0055557 0 0.0083147 -0.0055557 0 
0.173777 -0.116114 0 0.193091 -0.0799808 0 0.0092388 -0.00382683 0 
0.0092388 -0.00382683 0 0.193091 -0.0799808 0 0.204984 -0.0407739 0 
0.00980785 -0.0019509 0 0.00980785 -0.0019509 0 0.204984 -0.0407739 0 
0.209 -5.11902e-17 0 0.01 -2.44929e-18 0 0.209 0 0 
0.408 0 0 0.40016 0.0795969 0 0.204984 0.0407739 0 
0.204984 0.0407739 0 0.40016 0.0795969 0 0.376943 0.156135 0 
0.193091 0.0799808 0 0.193091 0.0799808 0 0.376943 0.156135 0 
0.33924 0.226673 0 0.173777 0.116114 0 0.173777 0.116114 0 
0.33924 0.226673 0 0.2885 0.2885 0 0.147785 0.147785 0 
0.147785 0.147785 0 0.2885 0.2885 0 0.226673 0.33924 0 
0.116114 0.173777 0 0.116114 0.173777 0 0.226673 0.33924 0 
0.156135 0.376943 0 0.0799808 0.193091 0 0.0799808 0.193091 0 
0.156135 0.376943 0 0.0795969 0.40016 0 0.0407739 0.204984 0 
0.0407739 0.204984 0 0.0795969 0.40016 0 2.49828e-17 0.408 0 
1.27976e-17 0.209 0 1.27976e-17 0.209 0 2.49828e-17 0.408 0 
-0.0795969 0.40016 0 -0.0407739 0.204984 0 -0.0407739 0.204984 0 
-0.0795969 0.40016 0 -0.156135 0.376943 0 -0.0799808 0.193091 0 
-0.0799808 0.193091 0 -0.156135 0.376943 0 -0.226673 0.33924 0 
-0.116114 0.173777 0 -0.116114 0.173777 0 -0.226673 0.33924 0 
-0.2885 0.2885 0 -0.147785 0.147785 0 -0.147785 0.147785 0 
-0.2885 0.2885 0 -0.33924 0.226673 0 -0.173777 0.116114 0 
-0.173777 0.116114 0 -0.33924 0.226673 0 -0.376943 0.156135 0 
-0.193091 0.0799808 0 -0.193091 0.0799808 0 -0.376943 0.156135 0 
-0.40016 0.0795969 0 -0.204984 0.0407739 0 -0.204984 0.0407739 0 
-0.40016 0.0795969 0 -0.408 4.99656e-17 0 -0.209 2.55951e-17 0 
-0.209 2.55951e-17 0 -0.408 4.99656e-17 0 -0.40016 -0.0795969 0 
-0.204984 -0.0407739 0 -0.204984 -0.0407739 0 -0.40016 -0.0795969 0 
-0.376943 -0.156135 0 -0.193091 -0.0799808 0 -0.193091 -0.0799808 0 
-0.376943 -0.156135 0 -0.33924 -0.226673 0 -0.173777 -0.116114 0 
-0.173777 -0.116114 0 -0.33924 -0.226673 0 -0.2885 -0.2885 0 
-0.147785 -0.147785 0 -0.147785 -0.147785 0 -0.2885 -0.2885 0 
-0.226673 -0.33924 0 -0.116114 -0.173777 0 -0.116114 -0.173777 0 
-0.226673 -0.33924 0 -0.156135 -0.376943 0 -0.0799808 -0.193091 0 
-0.0799808 -0.193091 0 -0.156135 -0.376943 0 -0.0795969 -0.40016 0 
-0.0407739 -0.204984 0 -0.0407739 -0.204984 0 -0.0795969 -0.40016 0 
-7.49484e-17 -0.408 0 -3.83927e-17 -0.209 0 -3.83927e-17 -0.209 0 
-7.49484e-17 -0.408 0 0.0795969 -0.40016 0 0.0407739 -0.204984 0 
0.0407739 -0.204984 0 0.0795969 -0.40016 0 0.156135 -0.376943 0 
0.0799808 -0.193091 0 0.0799808 -0.193091 0 0.156135 -0.376943 0 
0.226673 -0.33924 0 0.116114 -0.173777 0 0.116114 -0.173777 0 
0.226673 -0.33924 0 0.2885 -0.2885 0 0.147785 -0.147785 0 
0.147785 -0.147785 0 0.2885 -0.2885 0 0.33924 -0.226673 0 
0.173777 -0.116114 0 0.173777 -0.116114 0 0.33924 -0.226673 0 
0.376943 -0.156135 0 0.193091 -0.0799808 0 0.193091 -0.0799808 0 
0.376943 -0.156135 0 0.40016 -0.0795969 0 0.204984 -0.0407739 0 
0.204984 -0.0407739 0 0.40016 -0.0795969 0 0.408 -9.99312e-17 0 
0.209 -5.11902e-17 0 0.408 0 0 0.607 0 0 
0.595337 0.11842 0 0.40016 0.0795969 0 0.40016 0.0795969 0 
0.595337 0.11842 0 0.560795 0.232289 0 0.376943 0.156135 0 
0.376943 0.156135 0 0.560795 0.232289 0 0.504702 0.337231 0 
0.33924 0.226673 0 0.33924 0.226673 0 0.504702 0.337231 0 
0.429214 0.429214 0 0.2885 0.2885 0 0.2885 0.2885 0 
0.429214 0.429214 0 0.337231 0.504702 0 0.226673 0.33924 0 
0.226673 0.33924 0 0.337231 0.504702 0 0.232289 0.560795 0 
0.156135 0.376943 0 0.156135 0.376943 0 0.232289 0.560795 0 
0.11842 0.595337 0 0.0795969 0.40016 0 0.0795969 0.40016 0 
0.11842 0.595337 0 3.7168e-17 0.607 0 2.49828e-17 0.408 0 
2.49828e-17 0.408 0 3.7168e-17 0.607 0 -0.11842 0.595337 0 
-0.0795969 0.40016 0 -0.0795969 0.40016 0 -0.11842 0.595337 0 
-0.232289 0.560795 0 -0.156135 0.376943 0 -0.156135 0.376943 0 
-0.232289 0.560795 0 -0.337231 0.504702 0 -0.226673 0.33924 0 
-0.226673 0.33924 0 -0.337231 0.504702 0 -0.429214 0.429214 0 
-0.2885 0.2885 0 -0.2885 0.2885 0 -0.429214 0.429214 0 
-0.504702 0.337231 0 -0.33924 0.226673 0 -0.33924 0.226673 0 
-0.504702 0.337231 0 -0.560795 0.232289 0 -0.376943 0.156135 0 
-0.376943 0.156135 0 -0.560795 0.232289 0 -0.595337 0.11842 0 
-0.40016 0.0795969 0 -0.40016 0.0795969 0 -0.595337 0.11842 0 
-0.607 7.43361e-17 0 -0.408 4.99656e-17 0 -0.408 4.99656e-17 0 
-0.607 7.43361e-17 0 -0.595337 -0.11842 0 -0.40016 -0.0795969 0 
-0.40016 -0.0795969 0 -0.595337 -0.11842 0 -0.560795 -0.232289 0 
-0.376943 -0.156135 0 -0.376943 -0.156135 0 -0.560795 -0.232289 0 
-0.504702 -0.337231 0 -0.33924 -0.226673 0 -0.33924 -0.226673 0 
-0.504702 -0.337231 0 -0.429214 -0.429214 0 -0.2885 -0.2885 0 
-0.2885 -0.2885 0 -0.429214 -0.429214 0 -0.337231 -0.504702 0 
-0.226673 -0.33924 0 -0.226673 -0.33924 0 -0.337231 -0.504702 0 
-0.232289 -0.560795 0 -0.156135 -0.376943 0 -0.156135 -0.376943 0 
-0.232289 -0.560795 0 -0.11842 -0.595337 0 -0.0795969 -0.40016 0 
-0.0795969 -0.40016 0 -0.11842 -0.595337 0 -1.11504e-16 -0.607 0 
-7.49484e-17 -0.408 0 -7.49484e-17 -0.408 0 -1.11504e-16 -0.607 0 
0.11842 -0.595337 0 0.0795969 -0.40016 0 0.0795969 -0.40016 0 
0.11842 -0.595337 0 0.232289 -0.560795 0 0.156135 -0.376943 0 
0.156135 -0.376943 0 0.232289 -0.560795 0 0.337231 -0.504702 0 
0.226673 -0.33924 0 0.226673 -0.33924 0 0.337231 -0.504702 0 
0.429214 -0.429214 0 0.2885 -0.2885 0 0.2885 -0.2885 0 
0.429214 -0.429214 0 0.504702 -0.337231 0 0.33924 -0.226673 0 
0.33924 -0.226673 0 0.504702 -0.337231 0 0.560795 -0.232289 0 
0.376943 -0.156135 0 0.376943 -0.156135 0 0.560795 -0.232289 0 
0.595337 -0.11842 0 0.40016 -0.0795969 0 0.40016 -0.0795969 0 
0.595337 -0.11842 0 0.607 -1.48672e-16 0 0.408 -9.99312e-17 0 
0.607 0 0 0.806 0 0 0.790513 0.157243 0 
0.595337 0.11842 0 0.595337 0.11842 0 0.790513 0.157243 0 
0.744647 0.308443 0 0.560795 0.232289 0 0.560795 0.232289 0 
0.744647 0.308443 0 0.670165 0.44779 0 0.504702 0.337231 0 
0.504702 0.337231 0 0.670165 0.44779 0 0.569928 0.569928 0 
0.429214 0.429214 0 0.429214 0.429214 0 0.569928 0.569928 0 
0.44779 0.670165 0 0.337231 0.504702 0 0.337231 0.504702 0 
0.44779 0.670165 0 0.308443 0.744647 0 0.232289 0.560795 0 
0.232289 0.560795 0 0.308443 0.744647 0 0.157243 0.790513 0 
0.11842 0.595337 0 0.11842 0.595337 0 0.157243 0.790513 0 
4.93533e-17 0.806 0 3.7168e-17 0.607 0 3.7168e-17 0.607 0 
4.93533e-17 0.806 0 -0.157243 0.790513 0 -0.11842 0.595337 0 
-0.11842 0.595337 0 -0.157243 0.790513 0 -0.308443 0.744647 0 
-0.232289 0.560795 0 -0.232289 0.560795 0 -0.308443 0.744647 0 
-0.44779 0.670165 0 -0.337231 0.504702 0 -0.337231 0.504702 0 
-0.44779 0.670165 0 -0.569928 0.569928 0 -0.429214 0.429214 0 
-0.429214 0.429214 0 -0.569928 0.569928 0 -0.670165 0.44779 0 
-0.504702 0.337231 0 -0.504702 0.337231 0 -0.670165 0.44779 0 
-0.744647 0.308443 0 -0.560795 0.232289 0 -0.560795 0.232289 0 
-0.744647 0.308443 0 -0.790513 0.157243 0 -0.595337 0.11842 0 
-0.595337 0.11842 0 -0.790513 0.157243 0 -0.806 9.87065e-17 0 
-0.607 7.43361e-17 0 -0.607 7.43361e-17 0 -0.806 9.87065e-17 0 
-0.790513 -0.157243 0 -0.595337 -0.11842 0 -0.595337 -0.11842 0 
-0.790513 -0.157243 0 -0.744647 -0.308443 0 -0.560795 -0.232289 0 
-0.560795 -0.232289 0 -0.744647 -0.308443 0 -0.670165 -0.44779 0 
-0.504702 -0.337231 0 -0.504702 -0.337231 0 -0.670165 -0.44779 0 
-0.569928 -0.569928 0 -0.429214 -0.429214 0 -0.429214 -0.429214 0 
[...]
CELL_DATA 320
FIELD FieldData 1
velocityCellExact 3 320 double
-0.59513370164 9.0884449924 0 -2.3510016188 8.7391811482 0 -4.0049930304 8.0540754735 0 
-5.4935459741 7.0594561951 0 -6.7594561951 5.7935459741 0 -7.7540754735 4.3049930304 0 
-8.4391811482 2.6510016188 0 -8.7884449924 0.89513370164 0 -8.7884449924 -0.89513370164 0 
-8.4391811482 -2.6510016188 0 -7.7540754735 -4.3049930304 0 -6.7594561951 -5.7935459741 0 
-5.4935459741 -7.0594561951 0 -4.0049930304 -8.0540754735 0 -2.3510016188 -8.7391811482 0 
-0.59513370164 -9.0884449924 0 1.1951337016 -9.0884449924 0 2.9510016188 -8.7391811482 0 
4.6049930304 -8.0540754735 0 6.0935459741 -7.0594561951 0 7.3594561951 -5.7935459741 0 
8.3540754735 -4.3049930304 0 9.0391811482 -2.6510016188 0 9.3884449924 -0.89513370164 0 
9.3884449924 0.89513370164 0 9.0391811482 2.6510016188 0 8.3540754735 4.3049930304 0 
7.3594561951 5.7935459741 0 6.0935459741 7.0594561951 0 4.6049930304 8.0540754735 0 
2.9510016188 8.7391811482 0 1.1951337016 9.0884449924 0 -0.017721686644 3.2258824203 0 
-0.64095519369 3.101913568 0 -1.2280283203 2.8587399169 0 -1.7563801756 2.5057064939 0 
-2.2057064939 2.0563801756 0 -2.5587399169 1.5280283203 0 -2.801913568 0.94095519369 0 
-2.9258824203 0.31772168664 0 -2.9258824203 -0.31772168664 0 -2.801913568 -0.94095519369 0 
-2.5587399169 -1.5280283203 0 -2.2057064939 -2.0563801756 0 -1.7563801756 -2.5057064939 0 
-1.2280283203 -2.8587399169 0 -0.64095519369 -3.101913568 0 -0.017721686644 -3.2258824203 0 
0.61772168664 -3.2258824203 0 1.2409551937 -3.101913568 0 1.8280283203 -2.8587399169 0 
2.3563801756 -2.5057064939 0 2.8057064939 -2.0563801756 0 3.1587399169 -1.5280283203 0 
3.401913568 -0.94095519369 0 3.5258824203 -0.31772168664 0 3.5258824203 0.31772168664 0 
3.401913568 0.94095519369 0 3.1587399169 1.5280283203 0 2.8057064939 2.0563801756 0 
2.3563801756 2.5057064939 0 1.8280283203 2.8587399169 0 1.2409551937 3.101913568 0 
0.61772168664 3.2258824203 0 0.10686277768 1.9609551264 0 -0.27198951183 1.8855967207 0 
-0.62886056517 1.7377758903 0 -0.95003602791 1.5231733071 0 -1.2231733071 1.2500360279 0 
-1.4377758903 0.92886056517 0 -1.5855967207 0.57198951183 0 -1.6609551264 0.19313722232 0 
-1.6609551264 -0.19313722232 0 -1.5855967207 -0.57198951183 0 -1.4377758903 -0.92886056517 0 
-1.2231733071 -1.2500360279 0 -0.95003602791 -1.5231733071 0 -0.62886056517 -1.7377758903 0 
-0.27198951183 -1.8855967207 0 0.10686277768 -1.9609551264 0 0.49313722232 -1.9609551264 0 
0.87198951183 -1.8855967207 0 1.2288605652 -1.7377758903 0 1.5500360279 -1.5231733071 0 
1.8231733071 -1.2500360279 0 2.0377758903 -0.92886056517 0 2.1855967207 -0.57198951183 0 
2.2609551264 -0.19313722232 0 2.2609551264 0.19313722232 0 2.1855967207 0.57198951183 0 
2.0377758903 0.92886056517 0 1.8231733071 1.2500360279 0 1.5500360279 1.5231733071 0 
1.2288605652 1.7377758903 0 0.87198951183 1.8855967207 0 0.49313722232 1.9609551264 0 
0.16126377873 1.4086124935 0 -0.11087710864 1.3544803054 0 -0.36722821915 1.2482961987 0 
-0.59793812337 1.0941407691 0 -0.79414076909 0.89793812337 0 -0.94829619865 0.66722821915 0 
-1.0544803054 0.41087710864 0 -1.1086124935 0.13873622127 0 -1.1086124935 -0.13873622127 0 
-1.0544803054 -0.41087710864 0 -0.94829619865 -0.66722821915 0 -0.79414076909 -0.89793812337 0 
-0.59793812337 -1.0941407691 0 -0.36722821915 -1.2482961987 0 -0.11087710864 -1.3544803054 0 
0.16126377873 -1.4086124935 0 0.43873622127 -1.4086124935 0 0.71087710864 -1.3544803054 0 
0.96722821915 -1.2482961987 0 1.1979381234 -1.0941407691 0 1.3941407691 -0.89793812337 0 
1.5482961987 -0.66722821915 0 1.6544803054 -0.41087710864 0 1.7086124935 -0.13873622127 0 
1.7086124935 0.13873622127 0 1.6544803054 0.41087710864 0 1.5482961987 0.66722821915 0 
1.3941407691 0.89793812337 0 1.1979381234 1.0941407691 0 0.96722821915 1.2482961987 0 
0.71087710864 1.3544803054 0 0.43873622127 1.4086124935 0 0.19175357225 1.0990444248 0 
-0.020579433743 1.0568087639 0 -0.22059275188 0.9739605349 0 -0.40059998251 0.85368354872 0 
-0.55368354872 0.70059998251 0 -0.6739605349 0.52059275188 0 -0.75680876392 0.32057943374 0 
-0.79904442482 0.10824642775 0 -0.79904442482 -0.10824642775 0 -0.75680876392 -0.32057943374 0 
-0.6739605349 -0.52059275188 0 -0.55368354872 -0.70059998251 0 -0.40059998251 -0.85368354872 0 
-0.22059275188 -0.9739605349 0 -0.020579433743 -1.0568087639 0 0.19175357225 -1.0990444248 0 
0.40824642775 -1.0990444248 0 0.62057943374 -1.0568087639 0 0.82059275188 -0.9739605349 0 
1.0005999825 -0.85368354872 0 1.1536835487 -0.70059998251 0 1.2739605349 -0.52059275188 0 
1.3568087639 -0.32057943374 0 1.3990444248 -0.10824642775 0 1.3990444248 0.10824642775 0 
1.3568087639 0.32057943374 0 1.2739605349 0.52059275188 0 1.1536835487 0.70059998251 0 
1.0005999825 0.85368354872 0 0.82059275188 0.9739605349 0 0.62057943374 1.0568087639 0 
0.40824642775 1.0990444248 0 0.21125655018 0.90102736684 0 0.03718001154 0.86640139043 0 
-0.12679650233 0.79848009448 0 -0.27437146597 0.69987365628 0 -0.39987365628 0.57437146597 0 
-0.49848009448 0.42679650233 0 -0.56640139043 0.26281998846 0 -0.60102736684 0.088743449823 0 
-0.60102736684 -0.088743449823 0 -0.56640139043 -0.26281998846 0 -0.49848009448 -0.42679650233 0 
-0.39987365628 -0.57437146597 0 -0.27437146597 -0.69987365628 0 -0.12679650233 -0.79848009448 0 
0.03718001154 -0.86640139043 0 0.21125655018 -0.90102736684 0 0.38874344982 -0.90102736684 0 
0.56281998846 -0.86640139043 0 0.72679650233 -0.79848009448 0 0.87437146597 -0.69987365628 0 
0.99987365628 -0.57437146597 0 1.0984800945 -0.42679650233 0 1.1664013904 -0.26281998846 0 
1.2010273668 -0.088743449823 0 1.2010273668 0.088743449823 0 1.1664013904 0.26281998846 0 
1.0984800945 0.42679650233 0 0.99987365628 0.57437146597 0 0.87437146597 0.69987365628 0 
0.72679650233 0.79848009448 0 0.56281998846 0.86640139043 0 0.38874344982 0.90102736684 0 
0.22480464877 0.7634712134 0 0.077303661485 0.73413144283 0 -0.0616392304 0.67657941262 0 
-0.18668452947 0.59302681501 0 -0.29302681501 0.48668452947 0 -0.37657941262 0.3616392304 0 
-0.43413144283 0.22269633852 0 -0.4634712134 0.075195351231 0 -0.4634712134 -0.075195351231 0 
-0.43413144283 -0.22269633852 0 -0.37657941262 -0.3616392304 0 -0.29302681501 -0.48668452947 0 
-0.18668452947 -0.59302681501 0 -0.0616392304 -0.67657941262 0 0.077303661485 -0.73413144283 0 
0.22480464877 -0.7634712134 0 0.37519535123 -0.7634712134 0 0.52269633852 -0.73413144283 0 
0.6616392304 -0.67657941262 0 0.78668452947 -0.59302681501 0 0.89302681501 -0.48668452947 0 
0.97657941262 -0.3616392304 0 1.0341314428 -0.22269633852 0 1.0634712134 -0.075195351231 0 
1.0634712134 0.075195351231 0 1.0341314428 0.22269633852 0 0.97657941262 0.3616392304 0 
0.89302681501 0.48668452947 0 0.78668452947 0.59302681501 0 0.6616392304 0.67657941262 0 
0.52269633852 0.73413144283 0 0.37519535123 0.7634712134 0 0.2347639665 0.66235256351 0 
0.10679888369 0.63689872594 0 -0.01374158857 0.58696922752 0 -0.12222514753 0.51448283086 0 
-0.21448283086 0.42222514753 0 -0.28696922752 0.31374158857 0 -0.33689872594 0.19320111631 0 
-0.36235256351 0.065236033497 0 -0.36235256351 -0.065236033497 0 -0.33689872594 -0.19320111631 0 
-0.28696922752 -0.31374158857 0 -0.21448283086 -0.42222514753 0 -0.12222514753 -0.51448283086 0 
-0.01374158857 -0.58696922752 0 0.10679888369 -0.63689872594 0 0.2347639665 -0.66235256351 0 
0.3652360335 -0.66235256351 0 0.49320111631 -0.63689872594 0 0.61374158857 -0.58696922752 0 
0.72222514753 -0.51448283086 0 0.81448283086 -0.42222514753 0 0.88696922752 -0.31374158857 0 
0.93689872594 -0.19320111631 0 0.96235256351 -0.065236033497 0 0.96235256351 0.065236033497 0 
0.93689872594 0.19320111631 0 0.88696922752 0.31374158857 0 0.81448283086 0.42222514753 0 
0.72222514753 0.51448283086 0 0.61374158857 0.58696922752 0 0.49320111631 0.63689872594 0 
0.3652360335 0.66235256351 0 0.24239368773 0.58488670389 0 0.12939484146 0.56240983587 0 
0.022952255759 0.51831987326 0 -0.072843540502 0.45431116859 0 -0.15431116859 0.3728435405 0 
-0.21831987326 0.27704774424 0 -0.26240983587 0.17060515854 0 -0.28488670389 0.057606312271 0 
-0.28488670389 -0.057606312271 0 -0.26240983587 -0.17060515854 0 -0.21831987326 -0.27704774424 0 
-0.15431116859 -0.3728435405 0 -0.072843540502 -0.45431116859 0 0.022952255759 -0.51831987326 0 
0.12939484146 -0.56240983587 0 0.24239368773 -0.58488670389 0 0.35760631227 -0.58488670389 0 
0.47060515854 -0.56240983587 0 0.57704774424 -0.51831987326 0 0.6728435405 -0.45431116859 0 
0.75431116859 -0.3728435405 0 0.81831987326 -0.27704774424 0 0.86240983587 -0.17060515854 0 
0.88488670389 -0.057606312271 0 0.88488670389 0.057606312271 0 0.86240983587 0.17060515854 0 
0.81831987326 0.27704774424 0 0.75431116859 0.3728435405 0 0.6728435405 0.45431116859 0 
0.57704774424 0.51831987326 0 0.47060515854 0.56240983587 0 0.35760631227 0.58488670389 0 
0.24842560362 0.52364363413 0 0.14725878598 0.50352030294 0 0.051961727532 0.46404696888 0 
-0.033803359202 0.40674057004 0 -0.10674057004 0.3338033592 0 -0.16404696888 0.24803827247 0 
-0.20352030294 0.15274121402 0 -0.22364363413 0.051574396385 0 -0.22364363413 -0.051574396385 0 
-0.20352030294 -0.15274121402 0 -0.16404696888 -0.24803827247 0 -0.10674057004 -0.3338033592 0 
-0.033803359202 -0.40674057004 0 0.051961727532 -0.46404696888 0 0.14725878598 -0.50352030294 0 
0.24842560362 -0.52364363413 0 0.35157439638 -0.52364363413 0 0.45274121402 -0.50352030294 0 
0.54803827247 -0.46404696888 0 0.6338033592 -0.40674057004 0 0.70674057004 -0.3338033592 0 
0.76404696888 -0.24803827247 0 0.80352030294 -0.15274121402 0 0.82364363413 -0.051574396385 0 
0.82364363413 0.051574396385 0 0.80352030294 0.15274121402 0 0.76404696888 0.24803827247 0 
0.70674057004 0.3338033592 0 0.6338033592 0.40674057004 0 0.54803827247 0.46404696888 0 
0.45274121402 0.50352030294 0 0.35157439638 0.52364363413 0 
POINT_DATA 1280
FIELD FieldData 3
velocityEdge 3 1280 double
0.3 99.970642071 0 0.3 4.7553310662 0 -0.63913713912 4.721361228 0 
-19.214722824 98.107136731 0 -19.203488031 98.050655612 0 -0.62790234609 4.6648801093 0 
-1.541682558 4.4462150091 0 -37.979004587 92.413692028 0 -37.958245396 92.363574908 0 
-1.5209233673 4.3960978894 0 -2.3723862163 3.9995086114 0 -55.271178738 83.168146338 0 
-55.244055549 83.127553616 0 -2.3452630266 3.9589158894 0 -3.0989269712 3.3989269712 0 
-70.426319055 70.726319055 0 -70.396961126 70.696961126 0 -3.0695690422 3.3695690422 0 
-3.6932152019 2.6681810945 0 -82.861852928 55.566973616 0 -82.834729739 55.548850481 0 
-3.6660920122 2.6500579586 0 -4.1324980169 1.8360007938 0 -92.099975036 38.273322823 0 
-92.079215845 38.264724085 0 -4.1117388263 1.8274020555 0 -4.4002206532 0.93493201734 0 
-97.785996156 19.510517702 0 -97.774761363 19.508282963 0 -4.3889858602 0.93269727806 0 
-4.4866129399 2.7472580879e-16 0 -99.701923945 6.1049821014e-15 0 -99.701923945 6.1049821014e-15 0 
-4.4866129399 2.7472580879e-16 0 -4.3889858602 -0.93269727806 0 -97.774761363 -19.508282963 0 
-97.785996156 -19.510517702 0 -4.4002206532 -0.93493201734 0 -4.1117388263 -1.8274020555 0 
-92.079215845 -38.264724085 0 -92.099975036 -38.273322823 0 -4.1324980169 -1.8360007938 0 
-3.6660920122 -2.6500579586 0 -82.834729739 -55.548850481 0 -82.861852928 -55.566973616 0 
-3.6932152019 -2.6681810945 0 -3.0695690422 -3.3695690422 0 -70.396961126 -70.696961126 0 
-70.426319055 -70.726319055 0 -3.0989269712 -3.3989269712 0 -2.3452630266 -3.9589158894 0 
-55.244055549 -83.127553616 0 -55.271178738 -83.168146338 0 -2.3723862163 -3.9995086114 0 
-1.5209233673 -4.3960978894 0 -37.958245396 -92.363574908 0 -37.979004587 -92.413692028 0 
-1.541682558 -4.4462150091 0 -0.62790234609 -4.6648801093 0 -19.203488031 -98.050655612 0 
-19.214722824 -98.107136731 0 -0.63913713912 -4.721361228 0 0.3 -4.7553310662 0 
0.3 -99.970642071 0 0.3 -100.02935793 0 0.3 -4.8140469242 0 
1.2277558945 -4.6641438476 0 19.803341579 -98.04991935 0 19.814576372 -98.106400469 0 
1.2389906876 -4.7206249663 0 2.120359857 -4.3947374551 0 38.557681886 -92.362214474 0 
38.578441077 -92.412331594 0 2.1411190477 -4.4448545748 0 2.9440753437 -3.9571383963 0 
55.842867866 -83.125776123 0 55.869991055 -83.166368845 0 2.9711985334 -3.9977311183 0 
3.6676450976 -3.3676450976 0 70.995037182 -70.695037182 0 71.024395111 -70.724395111 0 
3.6970030266 -3.3970030266 0 4.2634318058 -2.6482804655 0 83.432069532 -55.547072987 0 
83.459192722 -55.565196123 0 4.2905549955 -2.6664036014 0 4.7084544473 -1.8260416212 0 
92.675931466 -38.26336365 0 92.696690657 -38.271962389 0 4.729213638 -1.8346403595 0 
4.9852844224 -0.93196101631 0 98.371059925 -19.507546701 0 98.382294718 -19.50978144 0 
4.9965192155 -0.93419575559 0 5.0827650506 -9.336887925e-16 0 100.29807606 -1.842445767e-14 0 
100.29807606 -1.842445767e-14 0 5.0827650506 -9.336887925e-16 0 4.9965192155 0.93419575559 0 
98.382294718 19.50978144 0 98.371059925 19.507546701 0 4.9852844224 0.93196101631 0 
4.729213638 1.8346403595 0 92.696690657 38.271962389 0 92.675931466 38.26336365 0 
4.7084544473 1.8260416212 0 4.2905549955 2.6664036014 0 83.459192722 55.565196123 0 
83.432069532 55.547072987 0 4.2634318058 2.6482804655 0 3.6970030266 3.3970030266 0 
71.024395111 70.724395111 0 70.995037182 70.695037182 0 3.6676450976 3.3676450976 0 
2.9711985334 3.9977311183 0 55.869991055 83.166368845 0 55.842867866 83.125776123 0 
2.9440753437 3.9571383963 0 2.1411190477 4.4448545748 0 38.578441077 92.412331594 0 
38.557681886 92.362214474 0 2.120359857 4.3947374551 0 1.2389906876 4.7206249663 0 
19.814576372 98.106400469 0 19.803341579 98.04991935 0 1.2277558945 4.6641438476 0 
0.3 4.8140469242 0 0.3 100.02935793 0 0.3 4.7553310662 0 
0.3 2.4216224632 0 -0.18385317626 2.4324941814 0 -0.63913713912 4.721361228 0 
-0.62790234609 4.6648801093 0 -0.17261838323 2.3760130627 0 -0.64861093964 2.2901493959 0 
-1.541682558 4.4462150091 0 -1.5209233673 4.3960978894 0 -0.62785174896 2.2400322762 0 
-1.0758471839 2.059100824 0 -2.3723862163 3.9995086114 0 -2.3452630266 3.9589158894 0 
-1.0487239942 2.018508102 0 -1.4487457927 1.7487457927 0 -3.0989269712 3.3989269712 0 
-3.0695690422 3.3695690422 0 -1.4193878637 1.7193878637 0 -1.7528074145 1.3716420621 0 
-3.6932152019 2.6681810945 0 -3.6660920122 2.6500579586 0 -1.7256842248 1.3535189262 0 
-1.9764324037 0.94292917545 0 -4.1324980169 1.8360007938 0 -4.1117388263 1.8274020555 0 
-1.955673213 0.93433043713 0 -2.1113536066 0.47964805447 0 -4.4002206532 0.93493201734 0 
-4.3889858602 0.93269727806 0 -2.1001188135 0.47741331519 0 -2.1529043368 1.3182737025e-16 0 
-4.4866129399 2.7472580879e-16 0 -4.4866129399 2.7472580879e-16 0 -2.1529043368 1.3182737025e-16 0 
-2.1001188135 -0.47741331519 0 -4.3889858602 -0.93269727806 0 -4.4002206532 -0.93493201734 0 
-2.1113536066 -0.47964805447 0 -1.955673213 -0.93433043713 0 -4.1117388263 -1.8274020555 0 
-4.1324980169 -1.8360007938 0 -1.9764324037 -0.94292917545 0 -1.7256842248 -1.3535189262 0 
-3.6660920122 -2.6500579586 0 -3.6932152019 -2.6681810945 0 -1.7528074145 -1.3716420621 0 
-1.4193878637 -1.7193878637 0 -3.0695690422 -3.3695690422 0 -3.0989269712 -3.3989269712 0 
-1.4487457927 -1.7487457927 0 -1.0487239942 -2.018508102 0 -2.3452630266 -3.9589158894 0 
-2.3723862163 -3.9995086114 0 -1.0758471839 -2.059100824 0 -0.62785174896 -2.2400322762 0 
-1.5209233673 -4.3960978894 0 -1.541682558 -4.4462150091 0 -0.64861093964 -2.2901493959 0 
-0.17261838323 -2.3760130627 0 -0.62790234609 -4.6648801093 0 -0.63913713912 -4.721361228 0 
-0.18385317626 -2.4324941814 0 0.3 -2.4216224632 0 0.3 -4.7553310662 0 
0.3 -4.8140469242 0 0.3 -2.4803383212 0 0.77247193166 -2.375276801 0 
1.2277558945 -4.6641438476 0 1.2389906876 -4.7206249663 0 0.7837067247 -2.4317579197 0 
1.2272882386 -2.2386718419 0 2.120359857 -4.3947374551 0 2.1411190477 -4.4448545748 0 
1.2480474293 -2.2887889616 0 1.6475363113 -2.0167306089 0 2.9440753437 -3.9571383963 0 
2.9711985334 -3.9977311183 0 1.674659501 -2.0573233309 0 2.017463919 -1.717463919 0 
3.6676450976 -3.3676450976 0 3.6970030266 -3.3970030266 0 2.046821848 -1.746821848 0 
2.3230240184 -1.3517414331 0 4.2634318058 -2.6482804655 0 4.2905549955 -2.6664036014 0 
2.3501472081 -1.369864569 0 2.5523888341 -0.93297000281 0 4.7084544473 -1.8260416212 0 
4.729213638 -1.8346403595 0 2.5731480248 -0.94156874113 0 2.6964173758 -0.47667705345 0 
4.9852844224 -0.93196101631 0 4.9965192155 -0.93419575559 0 2.7076521688 -0.47891179273 0 
2.7490564475 -5.0499347687e-16 0 5.0827650506 -9.336887925e-16 0 5.0827650506 -9.336887925e-16 0 
2.7490564475 -5.0499347687e-16 0 2.7076521688 0.47891179273 0 4.9965192155 0.93419575559 0 
4.9852844224 0.93196101631 0 2.6964173758 0.47667705345 0 2.5731480248 0.94156874113 0 
4.729213638 1.8346403595 0 4.7084544473 1.8260416212 0 2.5523888341 0.93297000281 0 
2.3501472081 1.369864569 0 4.2905549955 2.6664036014 0 4.2634318058 2.6482804655 0 
2.3230240184 1.3517414331 0 2.046821848 1.746821848 0 3.6970030266 3.3970030266 0 
3.6676450976 3.3676450976 0 2.017463919 1.717463919 0 1.674659501 2.0573233309 0 
2.9711985334 3.9977311183 0 2.9440753437 3.9571383963 0 1.6475363113 2.0167306089 0 
1.2480474293 2.2887889616 0 2.1411190477 4.4448545748 0 2.120359857 4.3947374551 0 
1.2272882386 2.2386718419 0 0.7837067247 2.4317579197 0 1.2389906876 4.7206249663 0 
1.2277558945 4.6641438476 0 0.77247193166 2.375276801 0 0.3 2.4803383212 0 
0.3 4.8140469242 0 0.3 2.4216224632 0 0.3 1.618088529 0 
-0.027091482295 1.6443999265 0 -0.18385317626 2.4324941814 0 -0.17261838323 2.3760130627 0 
-0.015856689259 1.5879188078 0 -0.34111181569 1.5477808404 0 -0.64861093964 2.2901493959 0 
-0.62785174896 2.2400322762 0 -0.32035262502 1.4976637208 0 -0.62942764887 1.3909867753 0 
-1.0758471839 2.059100824 0 -1.0487239942 2.018508102 0 -0.60230445915 1.3503940532 0 
-0.88056149891 1.1805614989 0 -1.4487457927 1.7487457927 0 -1.4193878637 1.7193878637 0 
-0.85120356992 1.1512035699 0 -1.0846933658 0.92522252708 0 -1.7528074145 1.3716420621 0 
-1.7256842248 1.3535189262 0 -1.0575701761 0.90709939112 0 -1.2340638483 0.6354300515 0 
-1.9764324037 0.94292917545 0 -1.955673213 0.93433043713 0 -1.2133046576 0.62683131318 0 
-1.3232593516 0.32288636051 0 -2.1113536066 0.47964805447 0 -2.1001188135 0.47741331519 0 
-1.3120245586 0.32065162123 0 -1.3493704026 8.2625107223e-17 0 -2.1529043368 1.3182737025e-16 0 
-2.1529043368 1.3182737025e-16 0 -1.3493704026 8.2625107223e-17 0 -1.3120245586 -0.32065162123 0 
-2.1001188135 -0.47741331519 0 -2.1113536066 -0.47964805447 0 -1.3232593516 -0.32288636051 0 
-1.2133046576 -0.62683131318 0 -1.955673213 -0.93433043713 0 -1.9764324037 -0.94292917545 0 
-1.2340638483 -0.6354300515 0 -1.0575701761 -0.90709939112 0 -1.7256842248 -1.3535189262 0 
-1.7528074145 -1.3716420621 0 -1.0846933658 -0.92522252708 0 -0.85120356992 -1.1512035699 0 
-1.4193878637 -1.7193878637 0 -1.4487457927 -1.7487457927 0 -0.88056149891 -1.1805614989 0 
-0.60230445915 -1.3503940532 0 -1.0487239942 -2.018508102 0 -1.0758471839 -2.059100824 0 
-0.62942764887 -1.3909867753 0 -0.32035262502 -1.4976637208 0 -0.62785174896 -2.2400322762 0 
-0.64861093964 -2.2901493959 0 -0.34111181569 -1.5477808404 0 -0.015856689259 -1.5879188078 0 
-0.17261838323 -2.3760130627 0 -0.18385317626 -2.4324941814 0 -0.027091482295 -1.6443999265 0 
0.3 -1.618088529 0 0.3 -2.4216224632 0 0.3 -2.4803383212 0 
0.3 -1.676804387 0 0.61571023769 -1.587182546 0 0.77247193166 -2.375276801 0 
0.7837067247 -2.4317579197 0 0.62694503073 -1.6436636647 0 0.91978911467 -1.4963032865 0 
1.2272882386 -2.2386718419 0 1.2480474293 -2.2887889616 0 0.94054830535 -1.5464204061 0 
1.2011167762 -1.3486165602 0 1.6475363113 -2.0167306089 0 1.674659501 -2.0573233309 0 
1.228239966 -1.3892092822 0 1.4492796253 -1.1492796253 0 2.017463919 -1.717463919 0 
2.046821848 -1.746821848 0 1.4786375543 -1.1786375543 0 1.6549099697 -0.90532189803 0 
2.3230240184 -1.3517414331 0 2.3501472081 -1.369864569 0 1.6820331594 -0.92344503399 0 
1.8100202786 -0.62547087886 0 2.5523888341 -0.93297000281 0 2.5731480248 -0.94156874113 0 