# vtk DataFile Version 4.0
vtk output
ASCII
DATASET UNSTRUCTURED_GRID
POINTS 1280 float
0.01 0 0 0.209 0 0 0.204984 0.0407739 0 
0.00980785 0.0019509 0 0.00980785 0.0019509 0 0.204984 0.0407739 0 
0.193091 0.0799808 0 0.0092388 0.00382683 0 0.0092388 0.00382683 0 
0.193091 0.0799808 0 0.173777 0.116114 0 0.0083147 0.0055557 0 
0.0083147 0.0055557 0 0.173777 0.116114 0 0.147785 0.147785 0 
0.00707107 0.00707107 0 0.00707107 0.00707107 0 0.147785 0.147785 0 
0.116114 0.173777 0 0.0055557 0.0083147 0 0.0055557 0.0083147 0 
0.116114 0.173777 0 0.0799808 0.193091 0 0.00382683 0.0092388 0 
0.00382683 0.0092388 0 0.0799808 0.193091 0 0.0407739 0.204984 0 
0.0019509 0.00980785 0 0.0019509 0.00980785 0 0.0407739 0.204984 0 
1.27976e-17 0.209 0 6.12323e-19 0.01 0 6.12323e-19 0.01 0 
1.27976e-17 0.209 0 -0.0407739 0.204984 0 -0.0019509 0.00980785 0 
-0.0019509 0.00980785 0 -0.0407739 0.204984 0 -0.0799808 0.193091 0 
-0.00382683 0.0092388 0 -0.00382683 0.0092388 0 -0.0799808 0.193091 0 
-0.116114 0.173777 0 -0.0055557 0.0083147 0 -0.0055557 0.0083147 0 
-0.116114 0.173777 0 -0.147785 0.147785 0 -0.00707107 0.00707107 0 
-0.00707107 0.00707107 0 -0.147785 0.147785 0 -0.173777 0.116114 0 
-0.0083147 0.0055557 0 -0.0083147 0.0055557 0 -0.173777 0.116114 0 
-0.193091 0.0799808 0 -0.0092388 0.00382683 0 -0.0092388 0.00382683 0 
-0.193091 0.0799808 0 -0.204984 0.0407739 0 -0.00980785 0.0019509 0 
-0.00980785 0.0019509 0 -0.204984 0.0407739 0 -0.209 2.55951e-17 0 
-0.01 1.22465e-18 0 -0.01 1.22465e-18 0 -0.209 2.55951e-17 0 
-0.204984 -0.0407739 0 -0.00980785 -0.0019509 0 -0.00980785 -0.0019509 0 
-0.204984 -0.0407739 0 -0.193091 -0.0799808 0 -0.0092388 -0.00382683 0 
-0.0092388 -0.00382683 0 -0.193091 -0.0799808 0 -0.173777 -0.116114 0 
-0.0083147 -0.0055557 0 -0.0083147 -0.0055557 0 -0.173777 -0.116114 0 
-0.147785 -0.147785 0 -0.00707107 -0.00707107 0 -0.00707107 -0.00707107 0 
-0.147785 -0.147785 0 -0.116114 -0.173777 0 -0.0055557 -0.0083147 0 
-0.0055557 -0.0083147 0 -0.116114 -0.173777 0 -0.0799808 -0.193091 0 
-0.00382683 -0.0092388 0 -0.00382683 -0.0092388 0 -0.0799808 -0.193091 0 
-0.0407739 -0.204984 0 -0.0019509 -0.00980785 0 -0.0019509 -0.00980785 0 
-0.0407739 -0.204984 0 -3.83927e-17 -0.209 0 -1.83697e-18 -0.01 0 
-1.83697e-18 -0.01 0 -3.83927e-17 -0.209 0 0.0407739 -0.204984 0 
0.0019509 -0.00980785 0 0.0019509 -0.00980785 0 0.0407739 -0.204984 0 
0.0799808 -0.193091 0 0.00382683 -0.0092388 0 0.00382683 -0.0092388 0 
0.0799808 -0.193091 0 0.116114 -0.173777 0 0.0055557 -0.0083147 0 
0.0055557 -0.0083147 0 0.116114 -0.173777 0 0.147785 -0.147785 0 
0.00707107 -0.00707107 0 0.00707107 -0.00707107 0 0.147785 -0.147785 0 
0.173777 -0.116114 0 0.0083147 -0.0055557 0 0.0083147 -0.0055557 0 
0.173777 -0.116114 0 0.193091 -0.0799808 0 0.0092388 -0.00382683 0 
0.0092388 -0.00382683 0 0.193091 -0.0799808 0 0.204984 -0.0407739 0 
0.00980785 -0.0019509 0 0.00980785 -0.0019509 0 0.204984 -0.0407739 0 
0.209 -5.11902e-17 0 0.01 -2.44929e-18 0 0.209 0 0 
0.408 0 0 0.40016 0.0795969 0 0.204984 0.0407739 0 
0.204984 0.0407739 0 0.40016 0.0795969 0 0.376943 0.156135 0 
0.193091 0.0799808 0 0.193091 0.0799808 0 0.376943 0.156135 0 
0.33924 0.226673 0 0.173777 0.116114 0 0.173777 0.116114 0 
0.33924 0.226673 0 0.2885 0.2885 0 0.147785 0.147785 0 
0.147785 0.147785 0 0.2885 0.2885 0 0.226673 0.33924 0 
0.116114 0.173777 0 0.116114 0.173777 0 0.226673 0.33924 0 
0.156135 0.376943 0 0.0799808 0.193091 0 0.0799808 0.193091 0 
0.156135 0.376943 0 0.0795969 0.40016 0 0.0407739 0.204984 0 
0.0407739 0.204984 0 0.0795969 0.40016 0 2.49828e-17 0.408 0 
1.27976e-17 0.209 0 1.27976e-17 0.209 0 2.49828e-17 0.408 0 
-0.0795969 0.40016 0 -0.0407739 0.204984 0 -0.0407739 0.204984 0 
-0.0795969 0.40016 0 -0.156135 0.376943 0 -0.0799808 0.193091 0 
-0.0799808 0.193091 0 -0.156135 0.376943 0 -0.226673 0.33924 0 
-0.116114 0.173777 0 -0.116114 0.173777 0 -0.226673 0.33924 0 
-0.2885 0.2885 0 -0.147785 0.147785 0 -0.147785 0.147785 0 
-0.2885 0.2885 0 -0.33924 0.226673 0 -0.173777 0.116114 0 
-0.173777 0.116114 0 -0.33924 0.226673 0 -0.376943 0.156135 0 
-0.193091 0.0799808 0 -0.193091 0.0799808 0 -0.376943 0.156135 0 
-0.40016 0.0795969 0 -0.204984 0.0407739 0 -0.204984 0.0407739 0 
-0.40016 0.0795969 0 -0.408 4.99656e-17 0 -0.209 2.55951e-17 0 
-0.209 2.55951e-17 0 -0.408 4.99656e-17 0 -0.40016 -0.0795969 0 
-0.204984 -0.0407739 0 -0.204984 -0.0407739 0 -0.40016 -0.0795969 0 
-0.376943 -0.156135 0 -0.193091 -0.0799808 0 -0.193091 -0.0799808 0 
-0.376943 -0.156135 0 -0.33924 -0.226673 0 -0.173777 -0.116114 0 
-0.173777 -0.116114 0 -0.33924 -0.226673 0 -0.2885 -0.2885 0 
-0.147785 -0.147785 0 -0.147785 -0.147785 0 -0.2885 -0.2885 0 
-0.226673 -0.33924 0 -0.116114 -0.173777 0 -0.116114 -0.173777 0 
-0.226673 -0.33924 0 -0.156135 -0.376943 0 -0.0799808 -0.193091 0 
-0.0799808 -0.193091 0 -0.156135 -0.376943 0 -0.0795969 -0.40016 0 
-0.0407739 -0.204984 0 -0.0407739 -0.204984 0 -0.0795969 -0.40016 0 
-7.49484e-17 -0.408 0 -3.83927e-17 -0.209 0 -3.83927e-17 -0.209 0 
-7.49484e-17 -0.408 0 0.0795969 -0.40016 0 0.0407739 -0.204984 0 
0.0407739 -0.204984 0 0.0795969 -0.40016 0 0.156135 -0.376943 0 
0.0799808 -0.193091 0 0.0799808 -0.193091 0 0.156135 -0.376943 0 
0.226673 -0.33924 0 0.116114 -0.173777 0 0.116114 -0.173777 0 
0.226673 -0.33924 0 0.2885 -0.2885 0 0.147785 -0.147785 0 
0.147785 -0.147785 0 0.2885 -0.2885 0 0.33924 -0.226673 0 
0.173777 -0.116114 0 0.173777 -0.116114 0 0.33924 -0.226673 0 
0.376943 -0.156135 0 0.193091 -0.0799808 0 0.193091 -0.0799808 0 
0.376943 -0.156135 0 0.40016 -0.0795969 0 0.204984 -0.0407739 0 
0.204984 -0.0407739 0 0.40016 -0.0795969 0 0.408 -9.99312e-17 0 
0.209 -5.11902e-17 0 0.408 0 0 0.607 0 0 
0.595337 0.11842 0 0.40016 0.0795969 0 0.40016 0.0795969 0 
0.595337 0.11842 0 0.560795 0.232289 0 0.376943 0.156135 0 
0.376943 0.156135 0 0.560795 0.232289 0 0.504702 0.337231 0 
0.33924 0.226673 0 0.33924 0.226673 0 0.504702 0.337231 0 
0.429214 0.429214 0 0.2885 0.2885 0 0.2885 0.2885 0 
0.429214 0.429214 0 0.337231 0.504702 0 0.226673 0.33924 0 
0.226673 0.33924 0 0.337231 0.504702 0 0.232289 0.560795 0 
0.156135 0.376943 0 0.156135 0.376943 0 0.232289 0.560795 0 
0.11842 0.595337 0 0.0795969 0.40016 0 0.0795969 0.40016 0 
0.11842 0.595337 0 3.7168e-17 0.607 0 2.49828e-17 0.408 0 
2.49828e-17 0.408 0 3.7168e-17 0.607 0 -0.11842 0.595337 0 
-0.0795969 0.40016 0 -0.0795969 0.40016 0 -0.11842 0.595337 0 
-0.232289 0.560795 0 -0.156135 0.376943 0 -0.156135 0.376943 0 
-0.232289 0.560795 0 -0.337231 0.504702 0 -0.226673 0.33924 0 
-0.226673 0.33924 0 -0.337231 0.504702 0 -0.429214 0.429214 0 
-0.2885 0.2885 0 -0.2885 0.2885 0 -0.429214 0.429214 0 
-0.504702 0.337231 0 -0.33924 0.226673 0 -0.33924 0.226673 0 
-0.504702 0.337231 0 -0.560795 0.232289 0 -0.376943 0.156135 0 
-0.376943 0.156135 0 -0.560795 0.232289 0 -0.595337 0.11842 0 
-0.40016 0.0795969 0 -0.40016 0.0795969 0 -0.595337 0.11842 0 
-0.607 7.43361e-17 0 -0.408 4.99656e-17 0 -0.408 4.99656e-17 0 
-0.607 7.43361e-17 0 -0.595337 -0.11842 0 -0.40016 -0.0795969 0 
-0.40016 -0.0795969 0 -0.595337 -0.11842 0 -0.560795 -0.232289 0 
-0.376943 -0.156135 0 -0.376943 -0.156135 0 -0.560795 -0.232289 0 
-0.504702 -0.337231 0 -0.33924 -0.226673 0 -0.33924 -0.226673 0 
-0.504702 -0.337231 0 -0.429214 -0.429214 0 -0.2885 -0.2885 0 
-0.2885 -0.2885 0 -0.429214 -0.429214 0 -0.337231 -0.504702 0 
-0.226673 -0.33924 0 -0.226673 -0.33924 0 -0.337231 -0.504702 0 
-0.232289 -0.560795 0 -0.156135 -0.376943 0 -0.156135 -0.376943 0 
-0.232289 -0.560795 0 -0.11842 -0.595337 0 -0.0795969 -0.40016 0 
-0.0795969 -0.40016 0 -0.11842 -0.595337 0 -1.11504e-16 -0.607 0 
-7.49484e-17 -0.408 0 -7.49484e-17 -0.408 0 -1.11504e-16 -0.607 0 
0.11842 -0.595337 0 0.0795969 -0.40016 0 0.0795969 -0.40016 0 
0.11842 -0.595337 0 0.232289 -0.560795 0 0.156135 -0.376943 0 
0.156135 -0.376943 0 0.232289 -0.560795 0 0.337231 -0.504702 0 
0.226673 -0.33924 0 0.226673 -0.33924 0 0.337231 -0.504702 0 
0.429214 -0.429214 0 0.2885 -0.2885 0 0.2885 -0.2885 0 
0.429214 -0.429214 0 0.504702 -0.337231 0 0.33924 -0.226673 0 
0.33924 -0.226673 0 0.504702 -0.337231 0 0.560795 -0.232289 0 
0.376943 -0.156135 0 0.376943 -0.156135 0 0.560795 -0.232289 0 
0.595337 -0.11842 0 0.40016 -0.0795969 0 0.40016 -0.0795969 0 
0.595337 -0.11842 0 0.607 -1.48672e-16 0 0.408 -9.99312e-17 0 
0.607 0 0 0.806 0 0 0.790513 0.157243 0 
0.595337 0.11842 0 0.595337 0.11842 0 0.790513 0.157243 0 
0.744647 0.308443 0 0.560795 0.232289 0 0.560795 0.232289 0 
0.744647 0.308443 0 0.670165 0.44779 0 0.504702 0.337231 0 
0.504702 0.337231 0 0.670165 0.44779 0 0.569928 0.569928 0 
0.429214 0.429214 0 0.429214 0.429214 0 0.569928 0.569928 0 
0.44779 0.670165 0 0.337231 0.504702 0 0.337231 0.504702 0 
0.44779 0.670165 0 0.308443 0.744647 0 0.232289 0.560795 0 
0.232289 0.560795 0 0.308443 0.744647 0 0.157243 0.790513 0 
0.11842 0.595337 0 0.11842 0.595337 0 0.157243 0.790513 0 
4.93533e-17 0.806 0 3.7168e-17 0.607 0 3.7168e-17 0.607 0 
4.93533e-17 0.806 0 -0.157243 0.790513 0 -0.11842 0.595337 0 
-0.11842 0.595337 0 -0.157243 0.790513 0 -0.308443 0.744647 0 
-0.232289 0.560795 0 -0.232289 0.560795 0 -0.308443 0.744647 0 
-0.44779 0.670165 0 -0.337231 0.504702 0 -0.337231 0.504702 0 
-0.44779 0.670165 0 -0.569928 0.569928 0 -0.429214 0.429214 0 
-0.429214 0.429214 0 -0.569928 0.569928 0 -0.670165 0.44779 0 
-0.504702 0.337231 0 -0.504702 0.337231 0 -0.670165 0.44779 0 
-0.744647 0.308443 0 -0.560795 0.232289 0 -0.560795 0.232289 0 
-0.744647 0.308443 0 -0.790513 0.157243 0 -0.595337 0.11842 0 
-0.595337 0.11842 0 -0.790513 0.157243 0 -0.806 9.87065e-17 0 
-0.607 7.43361e-17 0 -0.607 7.43361e-17 0 -0.806 9.87065e-17 0 
-0.790513 -0.157243 0 -0.595337 -0.11842 0 -0.595337 -0.11842 0 
-0.790513 -0.157243 0 -0.744647 -0.308443 0 -0.560795 -0.232289 0 
-0.560795 -0.232289 0 -0.744647 -0.308443 0 -0.670165 -0.44779 0 
-0.504702 -0.337231 0 -0.504702 -0.337231 0 -0.670165 -0.44779 0 
-0.569928 -0.569928 0 -0.429214 -0.429214 0 -0.429214 -0.429214 0 
[...]
POINT_DATA 1280
FIELD FieldData 2
velocity 3 1280 double
0.1 99.9902 0 0.1 4.7749 0 -0.835343 4.70229 0 
-19.4109 98.0881 0 -19.4072 98.0692 0 -0.831598 4.68346 0 
-1.73457 4.42906 0 -38.1719 92.3965 0 -38.165 92.3798 0 
-1.72766 4.41235 0 -2.56295 3.98539 0 -55.4617 83.154 0 
-55.4527 83.1405 0 -2.55391 3.97185 0 -3.2885 3.3885 0 
-70.6159 70.7159 0 -70.6061 70.7061 0 -3.27871 3.37871 0 
-3.88329 2.66155 0 -83.0519 55.5603 0 -83.0429 55.5543 0 
-3.87425 2.65551 0 -4.32448 1.83268 0 -92.292 38.27 0 
-92.285 38.2671 0 -4.31756 1.82981 0 -4.59524 0.933942 0 
-97.981 19.5095 0 -97.9773 19.5088 0 -4.5915 0.933197 0 
-4.68533 2.86894e-16 0 -99.9006 6.11715e-15 0 -99.9006 6.11715e-15 0 
-4.68533 2.86894e-16 0 -4.5915 -0.933197 0 -97.9773 -19.5088 0 
-97.981 -19.5095 0 -4.59524 -0.933942 0 -4.31756 -1.82981 0 
-92.285 -38.2671 0 -92.292 -38.27 0 -4.32448 -1.83268 0 
-3.87425 -2.65551 0 -83.0429 -55.5543 0 -83.0519 -55.5603 0 
-3.88329 -2.66155 0 -3.27871 -3.37871 0 -70.6061 -70.7061 0 
-70.6159 -70.7159 0 -3.2885 -3.3885 0 -2.55391 -3.97185 0 
-55.4527 -83.1405 0 -55.4617 -83.154 0 -2.56295 -3.98539 0 
-1.72766 -4.41235 0 -38.165 -92.3798 0 -38.1719 -92.3965 0 
-1.73457 -4.42906 0 -0.831598 -4.68346 0 -19.4072 -98.0692 0 
-19.4109 -98.0881 0 -0.835343 -4.70229 0 0.1 -4.7749 0 
0.1 -99.9902 0 0.1 -100.01 0 0.1 -4.79447 0 
1.03155 -4.68322 0 19.6071 -98.069 0 19.6109 -98.0878 0 
1.03529 -4.70204 0 1.92747 -4.4119 0 38.3648 -92.3794 0 
38.3717 -92.3961 0 1.93439 -4.4286 0 2.75351 -3.97126 0 
55.6523 -83.1399 0 55.6613 -83.1534 0 2.76255 -3.98479 0 
3.47807 -3.37807 0 70.8055 -70.7055 0 70.8153 -70.7153 0 
3.48786 -3.38786 0 4.07336 -2.65491 0 83.242 -55.5537 0 
83.251 -55.5597 0 4.0824 -2.66096 0 4.51647 -1.82936 0 
92.4839 -38.2667 0 92.4909 -38.2695 0 4.52339 -1.83223 0 
4.79026 -0.932951 0 98.176 -19.5085 0 98.1798 -19.5093 0 
4.79401 -0.933696 0 4.88405 -8.97185e-16 0 100.099 -1.8388e-14 0 
100.099 -1.8388e-14 0 4.88405 -8.97185e-16 0 4.79401 0.933696 0 
98.1798 19.5093 0 98.176 19.5085 0 4.79026 0.932951 0 
4.52339 1.83223 0 92.4909 38.2695 0 92.4839 38.2667 0 
4.51647 1.82936 0 4.0824 2.66096 0 83.251 55.5597 0 
83.242 55.5537 0 4.07336 2.65491 0 3.48786 3.38786 0 
70.8153 70.7153 0 70.8055 70.7055 0 3.47807 3.37807 0 
2.76255 3.98479 0 55.6613 83.1534 0 55.6523 83.1399 0 
2.75351 3.97126 0 1.93439 4.4286 0 38.3717 92.3961 0 
38.3648 92.3794 0 1.92747 4.4119 0 1.03529 4.70204 0 
19.6109 98.0878 0 19.6071 98.069 0 1.03155 4.68322 0 
0.1 4.79447 0 0.1 100.01 0 0.1 4.7749 0 
0.1 2.44119 0 -0.380059 2.41342 0 -0.835343 4.70229 0 
-0.831598 4.68346 0 -0.376314 2.39459 0 -0.841503 2.27299 0 
-1.73457 4.42906 0 -1.72766 4.41235 0 -0.834584 2.25628 0 
-1.26641 2.04498 0 -2.56295 3.98539 0 -2.55391 3.97185 0 
-1.25737 2.03145 0 -1.63832 1.73832 0 -3.2885 3.3885 0 
-3.27871 3.37871 0 -1.62853 1.72853 0 -1.94288 1.36501 0 
-3.88329 2.66155 0 -3.87425 2.65551 0 -1.93384 1.35897 0 
-2.16842 0.939609 0 -4.32448 1.83268 0 -4.31756 1.82981 0 
-2.1615 0.936743 0 -2.30637 0.478658 0 -4.59524 0.933942 0 
-4.5915 0.933197 0 -2.30263 0.477913 0 -2.35162 1.43995e-16 0 
-4.68533 2.86894e-16 0 -4.68533 2.86894e-16 0 -2.35162 1.43995e-16 0 
-2.30263 -0.477913 0 -4.5915 -0.933197 0 -4.59524 -0.933942 0 
-2.30637 -0.478658 0 -2.1615 -0.936743 0 -4.31756 -1.82981 0 
-4.32448 -1.83268 0 -2.16842 -0.939609 0 -1.93384 -1.35897 0 
-3.87425 -2.65551 0 -3.88329 -2.66155 0 -1.94288 -1.36501 0 
-1.62853 -1.72853 0 -3.27871 -3.37871 0 -3.2885 -3.3885 0 
-1.63832 -1.73832 0 -1.25737 -2.03145 0 -2.55391 -3.97185 0 
-2.56295 -3.98539 0 -1.26641 -2.04498 0 -0.834584 -2.25628 0 
-1.72766 -4.41235 0 -1.73457 -4.42906 0 -0.841503 -2.27299 0 
-0.376314 -2.39459 0 -0.831598 -4.68346 0 -0.835343 -4.70229 0 
-0.380059 -2.41342 0 0.1 -2.44119 0 0.1 -4.7749 0 
0.1 -4.79447 0 0.1 -2.46077 0 0.576266 -2.39435 0 
1.03155 -4.68322 0 1.03529 -4.70204 0 0.580011 -2.41318 0 
1.0344 -2.25583 0 1.92747 -4.4119 0 1.93439 -4.4286 0 
1.04132 -2.27254 0 1.45697 -2.03085 0 2.75351 -3.97126 0 
2.76255 -3.98479 0 1.46601 -2.04438 0 1.82789 -1.72789 0 
3.47807 -3.37807 0 3.48786 -3.38786 0 1.83768 -1.73768 0 
2.13295 -1.35837 0 4.07336 -2.65491 0 4.0824 -2.66096 0 
2.14199 -1.36442 0 2.3604 -0.93629 0 4.51647 -1.82936 0 
4.52339 -1.83223 0 2.36732 -0.939156 0 2.5014 -0.477667 0 
4.79026 -0.932951 0 4.79401 -0.933696 0 2.50514 -0.478412 0 
2.55034 -4.6849e-16 0 4.88405 -8.97185e-16 0 4.88405 -8.97185e-16 0 
2.55034 -4.6849e-16 0 2.50514 0.478412 0 4.79401 0.933696 0 
4.79026 0.932951 0 2.5014 0.477667 0 2.36732 0.939156 0 
4.52339 1.83223 0 4.51647 1.82936 0 2.3604 0.93629 0 
2.14199 1.36442 0 4.0824 2.66096 0 4.07336 2.65491 0 
2.13295 1.35837 0 1.83768 1.73768 0 3.48786 3.38786 0 
3.47807 3.37807 0 1.82789 1.72789 0 1.46601 2.04438 0 
2.76255 3.98479 0 2.75351 3.97126 0 1.45697 2.03085 0 
1.04132 2.27254 0 1.93439 4.4286 0 1.92747 4.4119 0 
1.0344 2.25583 0 0.580011 2.41318 0 1.03529 4.70204 0 
1.03155 4.68322 0 0.576266 2.39435 0 0.1 2.46077 0 
0.1 4.79447 0 0.1 2.44119 0 0.1 1.63766 0 
-0.223298 1.62533 0 -0.380059 2.41342 0 -0.376314 2.39459 0 
-0.219553 1.6065 0 -0.534004 1.53062 0 -0.841503 2.27299 0 
-0.834584 2.25628 0 -0.527085 1.51392 0 -0.819991 1.37686 0 
-1.26641 2.04498 0 -1.25737 2.03145 0 -0.81095 1.36333 0 
-1.07013 1.17013 0 -1.63832 1.73832 0 -1.62853 1.72853 0 
-1.06035 1.16035 0 -1.27477 0.918589 0 -1.94288 1.36501 0 
-1.93384 1.35897 0 -1.26572 0.912548 0 -1.42605 0.63211 0 
-2.16842 0.939609 0 -2.1615 0.936743 0 -1.41913 0.629244 0 
-1.51828 0.321896 0 -2.30637 0.478658 0 -2.30263 0.477913 0 
-1.51454 0.321151 0 -1.54809 9.4793e-17 0 -2.35162 1.43995e-16 0 
-2.35162 1.43995e-16 0 -1.54809 9.4793e-17 0 -1.51454 -0.321151 0 
-2.30263 -0.477913 0 -2.30637 -0.478658 0 -1.51828 -0.321896 0 
-1.41913 -0.629244 0 -2.1615 -0.936743 0 -2.16842 -0.939609 0 
-1.42605 -0.63211 0 -1.26572 -0.912548 0 -1.93384 -1.35897 0 
-1.94288 -1.36501 0 -1.27477 -0.918589 0 -1.06035 -1.16035 0 
-1.62853 -1.72853 0 -1.63832 -1.73832 0 -1.07013 -1.17013 0 
-0.81095 -1.36333 0 -1.25737 -2.03145 0 -1.26641 -2.04498 0 
-0.819991 -1.37686 0 -0.527085 -1.51392 0 -0.834584 -2.25628 0 
-0.841503 -2.27299 0 -0.534004 -1.53062 0 -0.219553 -1.6065 0 
-0.376314 -2.39459 0 -0.380059 -2.41342 0 -0.223298 -1.62533 0 
0.1 -1.63766 0 0.1 -2.44119 0 0.1 -2.46077 0 
0.1 -1.65723 0 0.419504 -1.60626 0 0.576266 -2.39435 0 
0.580011 -2.41318 0 0.423249 -1.62508 0 0.726897 -1.51346 0 
1.0344 -2.25583 0 1.04132 -2.27254 0 0.733816 -1.53017 0 
1.01055 -1.36274 0 1.45697 -2.03085 0 1.46601 -2.04438 0 
1.01959 -1.37627 0 1.25971 -1.15971 0 1.82789 -1.72789 0 
1.83768 -1.73768 0 1.26949 -1.16949 0 1.46484 -0.911955 0 
2.13295 -1.35837 0 2.14199 -1.36442 0 1.47388 -0.917996 0 
1.61803 -0.628791 0 2.3604 -0.93629 0 2.36732 -0.939156 0 
1.62495 -0.631657 0 1.7133 -0.320906 0 2.5014 -0.477667 0 
2.50514 -0.478412 0 1.71705 -0.321651 0 1.74681 -3.20883e-16 0 
2.55034 -4.6849e-16 0 2.55034 -4.6849e-16 0 1.74681 -3.20883e-16 0 
1.71705 0.321651 0 2.50514 0.478412 0 2.5014 0.477667 0 
1.7133 0.320906 0 1.62495 0.631657 0 2.36732 0.939156 0 
2.3604 0.93629 0 1.61803 0.628791 0 1.47388 0.917996 0 
2.14199 1.36442 0 2.13295 1.35837 0 1.46484 0.911955 0 
1.26949 1.16949 0 1.83768 1.73768 0 1.82789 1.72789 0 
1.25971 1.15971 0 1.01959 1.37627 0 1.46601 2.04438 0 
1.45697 2.03085 0 1.01055 1.36274 0 0.733816 1.53017 0 
1.04132 2.27254 0 1.0344 2.25583 0 0.726897 1.51346 0 
0.423249 1.62508 0 0.580011 2.41318 0 0.576266 2.39435 0 
0.419504 1.60626 0 0.1 1.65723 0 0.1 2.46077 0 
0.1 1.63766 0 0.1 1.23091 0 -0.143944 1.22639 0 
-0.223298 1.62533 0 -0.219553 1.6065 0 -0.140199 1.20756 0 
-0.378347 1.15483 0 -0.534004 1.53062 0 -0.527085 1.51392 0 
-0.371427 1.13813 0 -0.594012 1.03866 0 -0.819991 1.37686 0 
-0.81095 1.36333 0 -0.584971 1.02513 0 -0.782517 0.882517 0 
-1.07013 1.17013 0 -1.06035 1.16035 0 -0.772731 0.872731 0 
-0.936564 0.69261 0 -1.27477 0.918589 0 -1.26572 0.912548 0 
-0.927523 0.686569 0 -1.05026 0.476453 0 -1.42605 0.63211 0 
-1.41913 0.629244 0 -1.04334 0.473587 0 -1.11934 0.242543 0 
-1.51828 0.321896 0 -1.51454 0.321151 0 -1.1156 0.241798 0 
-1.14134 6.98867e-17 0 -1.54809 9.4793e-17 0 -1.54809 9.4793e-17 0 
-1.14134 6.98867e-17 0 -1.1156 -0.241798 0 -1.51454 -0.321151 0 
-1.51828 -0.321896 0 -1.11934 -0.242543 0 -1.04334 -0.473587 0 
-1.41913 -0.629244 0 -1.42605 -0.63211 0 -1.05026 -0.476453 0 
-0.927523 -0.686569 0 -1.26572 -0.912548 0 -1.27477 -0.918589 0 
-0.936564 -0.69261 0 -0.772731 -0.872731 0 -1.06035 -1.16035 0 
-1.07013 -1.17013 0 -0.782517 -0.882517 0 -0.584971 -1.02513 0 
-0.81095 -1.36333 0 -0.819991 -1.37686 0 -0.594012 -1.03866 0 
-0.371427 -1.13813 0 -0.527085 -1.51392 0 -0.534004 -1.53062 0 
-0.378347 -1.15483 0 -0.140199 -1.20756 0 -0.219553 -1.6065 0 
-0.223298 -1.62533 0 -0.143944 -1.22639 0 0.1 -1.23091 0 
0.1 -1.63766 0 0.1 -1.65723 0 0.1 -1.25048 0 
0.340151 -1.20732 0 0.419504 -1.60626 0 0.423249 -1.62508 0 
0.343896 -1.22615 0 0.57124 -1.13767 0 0.726897 -1.51346 0 
0.733816 -1.53017 0 0.578159 -1.15438 0 0.784575 -1.02454 0 
1.01055 -1.36274 0 1.01959 -1.37627 0 0.793616 -1.03807 0 
0.97209 -0.87209 0 1.25971 -1.15971 0 1.26949 -1.16949 0 
0.981876 -0.881876 0 1.12664 -0.685976 0 1.46484 -0.911955 0 
1.47388 -0.917996 0 1.13568 -0.692017 0 1.24225 -0.473133 0 
1.61803 -0.628791 0 1.62495 -0.631657 0 1.24916 -0.476 0 
1.31437 -0.241552 0 1.7133 -0.320906 0 1.71705 -0.321651 0 
1.31811 -0.242297 0 1.34005 -2.46164e-16 0 1.74681 -3.20883e-16 0 
1.74681 -3.20883e-16 0 1.34005 -2.46164e-16 0 1.31811 0.242297 0 
1.71705 0.321651 0 1.7133 0.320906 0 1.31437 0.241552 0 
1.24916 0.476 0 1.62495 0.631657 0 1.61803 0.628791 0 
1.24225 0.473133 0 1.13568 0.692017 0 1.47388 0.917996 0 
1.46484 0.911955 0 1.12664 0.685976 0 0.981876 0.881876 0 
1.26949 1.16949 0 1.25971 1.15971 0 0.97209 0.87209 0 
0.793616 1.03807 0 1.01959 1.37627 0 1.01055 1.36274 0 
0.784575 1.02454 0 0.578159 1.15438 0 0.733816 1.53017 0 
0.726897 1.51346 0 0.57124 1.13767 0 0.343896 1.22615 0 
0.423249 1.62508 0 0.419504 1.60626 0 0.340151 1.20732 0 
0.1 1.25048 0 0.1 1.65723 0 0.1 1.23091 0 
0.1 0.985239 0 -0.0960166 0.985442 0 -0.143944 1.22639 0 
-0.140199 1.20756 0 -0.0922717 0.966615 0 -0.284333 0.927863 0 
-0.378347 1.15483 0 -0.371427 1.13813 0 -0.277414 0.911157 0 
-0.457525 0.834395 0 -0.594012 1.03866 0 -0.584971 1.02513 0 
-0.448484 0.820864 0 -0.608802 0.708802 0 -0.782517 0.882517 0 
-0.772731 0.872731 0 -0.599017 0.699017 0 -0.732297 0.556123 0 
-0.936564 0.69261 0 -0.927523 0.686569 0 -0.723256 0.550082 0 
-0.82329 0.382439 0 -1.05026 0.476453 0 -1.04334 0.473587 0 
-0.816371 0.379573 0 -0.878395 0.194615 0 -1.11934 0.242543 0 
-1.1156 0.241798 0 -0.87465 0.19387 0 -0.895666 5.48437e-17 0 
-1.14134 6.98867e-17 0 -1.14134 6.98867e-17 0 -0.895666 5.48437e-17 0 
-0.87465 -0.19387 0 -1.1156 -0.241798 0 -1.11934 -0.242543 0 
-0.878395 -0.194615 0 -0.816371 -0.379573 0 -1.04334 -0.473587 0 
-1.05026 -0.476453 0 -0.82329 -0.382439 0 -0.723256 -0.550082 0 
-0.927523 -0.686569 0 -0.936564 -0.69261 0 -0.732297 -0.556123 0 
-0.599017 -0.699017 0 -0.772731 -0.872731 0 -0.782517 -0.882517 0 
-0.608802 -0.708802 0 -0.448484 -0.820864 0 -0.584971 -1.02513 0 
-0.594012 -1.03866 0 -0.457525 -0.834395 0 -0.277414 -0.911157 0 
-0.371427 -1.13813 0 -0.378347 -1.15483 0 -0.284333 -0.927863 0 
-0.0922717 -0.966615 0 -0.140199 -1.20756 0 -0.143944 -1.22639 0 
-0.0960166 -0.985442 0 0.1 -0.985239 0 0.1 -1.23091 0 
0.1 -1.25048 0 0.1 -1.00481 0 0.292223 -0.96637 0 
0.340151 -1.20732 0 0.343896 -1.22615 0 0.295968 -0.985197 0 
0.477226 -0.910704 0 0.57124 -1.13767 0 0.578159 -1.15438 0 
0.484145 -0.927409 0 0.648088 -0.820271 0 0.784575 -1.02454 0 
0.793616 -1.03807 0 0.657129 -0.833802 0 0.798375 -0.698375 0 
0.97209 -0.87209 0 0.981876 -0.881876 0 0.808161 -0.708161 0 
0.922369 -0.549489 0 1.12664 -0.685976 0 1.13568 -0.692017 0 
0.93141 -0.55553 0 1.01528 -0.37912 0 1.24225 -0.473133 0 
1.24916 -0.476 0 1.0222 -0.381986 0 1.07342 -0.193625 0 
1.31437 -0.241552 0 1.31811 -0.242297 0 1.07716 -0.194369 0 
1.09438 -2.01035e-16 0 1.34005 -2.46164e-16 0 1.34005 -2.46164e-16 0 
1.09438 -2.01035e-16 0 1.07716 0.194369 0 1.31811 0.242297 0 
1.31437 0.241552 0 1.07342 0.193625 0 1.0222 0.381986 0 
1.24916 0.476 0 1.24225 0.473133 0 1.01528 0.37912 0 
0.93141 0.55553 0 1.13568 0.692017 0 1.12664 0.685976 0 
0.922369 0.549489 0 0.808161 0.708161 0 0.981876 0.881876 0 
0.97209 0.87209 0 0.798375 0.698375 0 0.657129 0.833802 0 
0.793616 1.03807 0 0.784575 1.02454 0 0.648088 0.820271 0 
0.484145 0.927409 0 0.578159 1.15438 0 0.57124 1.13767 0 
0.477226 0.910704 0 0.295968 0.985197 0 0.343896 1.22615 0 
0.340151 1.20732 0 0.292223 0.96637 0 0.1 1.00481 0 
0.1 1.25048 0 0.1 0.985239 0 0.1 0.820779 0 
-0.063932 0.824142 0 -0.0960166 0.985442 0 -0.0922717 0.966615 0 
-0.0601871 0.805315 0 -0.221397 0.775921 0 -0.284333 0.927863 0 
-0.277414 0.911157 0 -0.214477 0.759216 0 -0.366156 0.697651 0 
-0.457525 0.834395 0 -0.448484 0.820864 0 -0.357114 0.68412 0 
-0.492512 0.592512 0 -0.608802 0.708802 0 -0.599017 0.699017 0 
-0.482726 0.582726 0 -0.595553 0.464754 0 -0.732297 0.556123 0 
-0.723256 0.550082 0 -0.586512 0.458713 0 -0.671349 0.319503 0 
-0.82329 0.382439 0 -0.816371 0.379573 0 -0.664429 0.316637 0 
-0.717095 0.16253 0 -0.878395 0.194615 0 -0.87465 0.19387 0 
-0.71335 0.161785 0 -0.731206 4.47735e-17 0 -0.895666 5.48437e-17 0 
-0.895666 5.48437e-17 0 -0.731206 4.47735e-17 0 -0.71335 -0.161785 0 
-0.87465 -0.19387 0 -0.878395 -0.194615 0 -0.717095 -0.16253 0 
-0.664429 -0.316637 0 -0.816371 -0.379573 0 -0.82329 -0.382439 0 
-0.671349 -0.319503 0 -0.586512 -0.458713 0 -0.723256 -0.550082 0 
-0.732297 -0.556123 0 -0.595553 -0.464754 0 -0.482726 -0.582726 0 
-0.599017 -0.699017 0 -0.608802 -0.708802 0 -0.492512 -0.592512 0 
-0.357114 -0.68412 0 -0.448484 -0.820864 0 -0.457525 -0.834395 0 
-0.366156 -0.697651 0 -0.214477 -0.759216 0 -0.277414 -0.911157 0 
-0.284333 -0.927863 0 -0.221397 -0.775921 0 -0.0601871 -0.805315 0 
-0.0922717 -0.966615 0 -0.0960166 -0.985442 0 -0.063932 -0.824142 0 
0.1 -0.820779 0 0.1 -0.985239 0 0.1 -1.00481 0 
0.1 -0.840351 0 0.260138 -0.805069 0 0.292223 -0.96637 0 
0.295968 -0.985197 0 0.263883 -0.823897 0 0.41429 -0.758762 0 
0.477226 -0.910704 0 0.484145 -0.927409 0 0.421209 -0.775468 0 
0.556719 -0.683528 0 0.648088 -0.820271 0 0.657129 -0.833802 0 
0.56576 -0.697059 0 0.682084 -0.582084 0 0.798375 -0.698375 0 
0.808161 -0.708161 0 0.69187 -0.59187 0 0.785625 -0.45812 0 
0.922369 -0.549489 0 0.93141 -0.55553 0 0.794667 -0.464161 0 
0.863335 -0.316184 0 1.01528 -0.37912 0 1.0222 -0.381986 0 
0.870254 -0.31905 0 0.912116 -0.16154 0 1.07342 -0.193625 0 
1.07716 -0.194369 0 0.915861 -0.162285 0 0.929923 -1.70824e-16 0 
1.09438 -2.01035e-16 0 1.09438 -2.01035e-16 0 0.929923 -1.70824e-16 0 
0.915861 0.162285 0 1.07716 0.194369 0 1.07342 0.193625 0 
0.912116 0.16154 0 0.870254 0.31905 0 1.0222 0.381986 0 
1.01528 0.37912 0 0.863335 0.316184 0 0.794667 0.464161 0 
0.93141 0.55553 0 0.922369 0.549489 0 0.785625 0.45812 0 
0.69187 0.59187 0 0.808161 0.708161 0 0.798375 0.698375 0 
0.682084 0.582084 0 0.56576 0.697059 0 0.657129 0.833802 0 
0.648088 0.820271 0 0.556719 0.683528 0 0.421209 0.775468 0 
0.484145 0.927409 0 0.477226 0.910704 0 0.41429 0.758762 0 
0.263883 0.823897 0 0.295968 0.985197 0 0.292223 0.96637 0 
0.260138 0.805069 0 0.1 0.840351 0 0.1 1.00481 0 
0.1 0.820779 0 0.1 0.702972 0 -0.0409491 0.708599 0 
-0.063932 0.824142 0 -0.0601871 0.805315 0 -0.0372042 0.689772 0 
-0.176315 0.667082 0 -0.221397 0.775921 0 -0.214477 0.759216 0 
-0.169395 0.650377 0 -0.300706 0.599699 0 -0.366156 0.697651 0 
-0.357114 0.68412 0 -0.291665 0.586168 0 -0.40921 0.50921 0 
-0.492512 0.592512 0 -0.482726 0.582726 0 -0.399424 0.499424 0 
-0.497601 0.399304 0 -0.595553 0.464754 0 -0.586512 0.458713 0 
-0.48856 0.393263 0 -0.56251 0.274421 0 -0.671349 0.319503 0 
-0.664429 0.316637 0 -0.55559 0.271554 0 -0.601552 0.139547 0 
-0.717095 0.16253 0 -0.71335 0.161785 0 -0.597807 0.138803 0 
-0.6134 3.75599e-17 0 -0.731206 4.47735e-17 0 -0.731206 4.47735e-17 0 
-0.6134 3.75599e-17 0 -0.597807 -0.138803 0 -0.71335 -0.161785 0 
-0.717095 -0.16253 0 -0.601552 -0.139547 0 -0.55559 -0.271554 0 
-0.664429 -0.316637 0 -0.671349 -0.319503 0 -0.56251 -0.274421 0 
-0.48856 -0.393263 0 -0.586512 -0.458713 0 -0.595553 -0.464754 0 
-0.497601 -0.399304 0 -0.399424 -0.499424 0 -0.482726 -0.582726 0 
-0.492512 -0.592512 0 -0.40921 -0.50921 0 -0.291665 -0.586168 0 
-0.357114 -0.68412 0 -0.366156 -0.697651 0 -0.300706 -0.599699 0 
-0.169395 -0.650377 0 -0.214477 -0.759216 0 -0.221397 -0.775921 0 
-0.176315 -0.667082 0 -0.0372042 -0.689772 0 -0.0601871 -0.805315 0 
-0.063932 -0.824142 0 -0.0409491 -0.708599 0 0.1 -0.702972 0 
0.1 -0.820779 0 0.1 -0.840351 0 0.1 -0.722544 0 
0.237155 -0.689527 0 0.260138 -0.805069 0 0.263883 -0.823897 0 
0.2409 -0.708354 0 0.369207 -0.649923 0 0.41429 -0.758762 0 
0.421209 -0.775468 0 0.376127 -0.666629 0 0.491269 -0.585575 0 
0.556719 -0.683528 0 0.56576 -0.697059 0 0.50031 -0.599106 0 
0.598783 -0.498783 0 0.682084 -0.582084 0 0.69187 -0.59187 0 
0.608569 -0.508569 0 0.687673 -0.392671 0 0.785625 -0.45812 0 
0.794667 -0.464161 0 0.696714 -0.398712 0 0.754496 -0.271101 0 
0.863335 -0.316184 0 0.870254 -0.31905 0 0.761415 -0.273967 0 
0.796574 -0.138557 0 0.912116 -0.16154 0 0.915861 -0.162285 0 
0.800318 -0.139302 0 0.812117 -1.49183e-16 0 0.929923 -1.70824e-16 0 
0.929923 -1.70824e-16 0 0.812117 -1.49183e-16 0 0.800318 0.139302 0 
0.915861 0.162285 0 0.912116 0.16154 0 0.796574 0.138557 0 
0.761415 0.273967 0 0.870254 0.31905 0 0.863335 0.316184 0 
0.754496 0.271101 0 0.696714 0.398712 0 0.794667 0.464161 0 
0.785625 0.45812 0 0.687673 0.392671 0 0.608569 0.508569 0 
0.69187 0.59187 0 0.682084 0.582084 0 0.598783 0.498783 0 
0.50031 0.599106 0 0.56576 0.697059 0 0.556719 0.683528 0 
0.491269 0.585575 0 0.376127 0.666629 0 0.421209 0.775468 0 
0.41429 0.758762 0 0.369207 0.649923 0 0.2409 0.708354 0 
0.263883 0.823897 0 0.260138 0.805069 0 0.237155 0.689527 0 
0.1 0.722544 0 0.1 0.840351 0 0.1 0.702972 0 
0.1 0.614434 0 -0.0236761 0.621762 0 -0.0409491 0.708599 0 
-0.0372042 0.689772 0 -0.0199312 0.602935 0 -0.142432 0.585283 0 
-0.176315 0.667082 0 -0.169395 0.650377 0 -0.135513 0.568578 0 
-0.251516 0.526081 0 -0.300706 0.599699 0 -0.291665 0.586168 0 
-0.242475 0.512551 0 -0.346604 0.446604 0 -0.40921 0.50921 0 
-0.399424 0.499424 0 -0.336818 0.436818 0 -0.423984 0.350115 0 
-0.497601 0.399304 0 -0.48856 0.393263 0 -0.414943 0.344074 0 
-0.480711 0.240538 0 -0.56251 0.274421 0 -0.55559 0.271554 0 
-0.473791 0.237672 0 -0.514715 0.122274 0 -0.601552 0.139547 0 
-0.597807 0.138803 0 -0.51097 0.121529 0 -0.524861 3.21385e-17 0 
-0.6134 3.75599e-17 0 -0.6134 3.75599e-17 0 -0.524861 3.21385e-17 0 
-0.51097 -0.121529 0 -0.597807 -0.138803 0 -0.601552 -0.139547 0 
-0.514715 -0.122274 0 -0.473791 -0.237672 0 -0.55559 -0.271554 0 
-0.56251 -0.274421 0 -0.480711 -0.240538 0 -0.414943 -0.344074 0 
-0.48856 -0.393263 0 -0.497601 -0.399304 0 -0.423984 -0.350115 0 
-0.336818 -0.436818 0 -0.399424 -0.499424 0 -0.40921 -0.50921 0 
-0.346604 -0.446604 0 -0.242475 -0.512551 0 -0.291665 -0.586168 0 
-0.300706 -0.599699 0 -0.251516 -0.526081 0 -0.135513 -0.568578 0 
-0.169395 -0.650377 0 -0.176315 -0.667082 0 -0.142432 -0.585283 0 
-0.0199312 -0.602935 0 -0.0372042 -0.689772 0 -0.0409491 -0.708599 0 
-0.0236761 -0.621762 0 0.1 -0.614434 0 0.1 -0.702972 0 
0.1 -0.722544 0 0.1 -0.634006 0 0.219882 -0.602689 0 
0.237155 -0.689527 0 0.2409 -0.708354 0 0.223627 -0.621516 0 
0.335325 -0.568124 0 0.369207 -0.649923 0 0.376127 -0.666629 0 
0.342244 -0.58483 0 0.442079 -0.511958 0 0.491269 -0.585575 0 
0.50031 -0.599106 0 0.45112 -0.525489 0 0.536176 -0.436176 0 
0.598783 -0.498783 0 0.608569 -0.508569 0 0.545962 -0.445962 0 
0.614056 -0.343481 0 0.687673 -0.392671 0 0.696714 -0.398712 0 
0.623097 -0.349522 0 0.672697 -0.237219 0 0.754496 -0.271101 0 
0.761415 -0.273967 0 0.679616 -0.240085 0 0.709736 -0.121284 0 