# vtk DataFile Version 4.2
vtk output
ASCII
DATASET UNSTRUCTURED_GRID
POINTS 363 float
0.01 0 0 0.00980785 0.0019509 0 0.0092388 0.00382683 0 
0.0083147 0.0055557 0 0.00707107 0.00707107 0 0.0055557 0.0083147 0 
0.00382683 0.0092388 0 0.0019509 0.00980785 0 6.12323e-19 0.01 0 
-0.0019509 0.00980785 0 -0.00382683 0.0092388 0 -0.0055557 0.0083147 0 
-0.00707107 0.00707107 0 -0.0083147 0.0055557 0 -0.0092388 0.00382683 0 
-0.00980785 0.0019509 0 -0.01 1.22465e-18 0 -0.00980785 -0.0019509 0 
-0.0092388 -0.00382683 0 -0.0083147 -0.0055557 0 -0.00707107 -0.00707107 0 
-0.0055557 -0.0083147 0 -0.00382683 -0.0092388 0 -0.0019509 -0.00980785 0 
-1.83697e-18 -0.01 0 0.0019509 -0.00980785 0 0.00382683 -0.0092388 0 
0.0055557 -0.0083147 0 0.00707107 -0.00707107 0 0.0083147 -0.0055557 0 
0.0092388 -0.00382683 0 0.00980785 -0.0019509 0 0.01 -2.44929e-18 0 
0.209 0 0 0.204984 0.0407739 0 0.193091 0.0799808 0 
0.173777 0.116114 0 0.147785 0.147785 0 0.116114 0.173777 0 
0.0799808 0.193091 0 0.0407739 0.204984 0 1.27976e-17 0.209 0 
-0.0407739 0.204984 0 -0.0799808 0.193091 0 -0.116114 0.173777 0 
-0.147785 0.147785 0 -0.173777 0.116114 0 -0.193091 0.0799808 0 
-0.204984 0.0407739 0 -0.209 2.55951e-17 0 -0.204984 -0.0407739 0 
-0.193091 -0.0799808 0 -0.173777 -0.116114 0 -0.147785 -0.147785 0 
-0.116114 -0.173777 0 -0.0799808 -0.193091 0 -0.0407739 -0.204984 0 
-3.83927e-17 -0.209 0 0.0407739 -0.204984 0 0.0799808 -0.193091 0 
0.116114 -0.173777 0 0.147785 -0.147785 0 0.173777 -0.116114 0 
0.193091 -0.0799808 0 0.204984 -0.0407739 0 0.209 -5.11902e-17 0 
0.408 0 0 0.40016 0.0795969 0 0.376943 0.156135 0 
0.33924 0.226673 0 0.2885 0.2885 0 0.226673 0.33924 0 
0.156135 0.376943 0 0.0795969 0.40016 0 2.49828e-17 0.408 0 
-0.0795969 0.40016 0 -0.156135 0.376943 0 -0.226673 0.33924 0 
-0.2885 0.2885 0 -0.33924 0.226673 0 -0.376943 0.156135 0 
-0.40016 0.0795969 0 -0.408 4.99656e-17 0 -0.40016 -0.0795969 0 
-0.376943 -0.156135 0 -0.33924 -0.226673 0 -0.2885 -0.2885 0 
-0.226673 -0.33924 0 -0.156135 -0.376943 0 -0.0795969 -0.40016 0 
-7.49484e-17 -0.408 0 0.0795969 -0.40016 0 0.156135 -0.376943 0 
0.226673 -0.33924 0 0.2885 -0.2885 0 0.33924 -0.226673 0 
0.376943 -0.156135 0 0.40016 -0.0795969 0 0.408 -9.99312e-17 0 
0.607 0 0 0.595337 0.11842 0 0.560795 0.232289 0 
0.504702 0.337231 0 0.429214 0.429214 0 0.337231 0.504702 0 
0.232289 0.560795 0 0.11842 0.595337 0 3.7168e-17 0.607 0 
-0.11842 0.595337 0 -0.232289 0.560795 0 -0.337231 0.504702 0 
-0.429214 0.429214 0 -0.504702 0.337231 0 -0.560795 0.232289 0 
-0.595337 0.11842 0 -0.607 7.43361e-17 0 -0.595337 -0.11842 0 
-0.560795 -0.232289 0 -0.504702 -0.337231 0 -0.429214 -0.429214 0 
-0.337231 -0.504702 0 -0.232289 -0.560795 0 -0.11842 -0.595337 0 
-1.11504e-16 -0.607 0 0.11842 -0.595337 0 0.232289 -0.560795 0 
0.337231 -0.504702 0 0.429214 -0.429214 0 0.504702 -0.337231 0 
0.560795 -0.232289 0 0.595337 -0.11842 0 0.607 -1.48672e-16 0 
0.806 0 0 0.790513 0.157243 0 0.744647 0.308443 0 
0.670165 0.44779 0 0.569928 0.569928 0 0.44779 0.670165 0 
0.308443 0.744647 0 0.157243 0.790513 0 4.93533e-17 0.806 0 
-0.157243 0.790513 0 -0.308443 0.744647 0 -0.44779 0.670165 0 
-0.569928 0.569928 0 -0.670165 0.44779 0 -0.744647 0.308443 0 
-0.790513 0.157243 0 -0.806 9.87065e-17 0 -0.790513 -0.157243 0 
-0.744647 -0.308443 0 -0.670165 -0.44779 0 -0.569928 -0.569928 0 
-0.44779 -0.670165 0 -0.308443 -0.744647 0 -0.157243 -0.790513 0 
-1.4806e-16 -0.806 0 0.157243 -0.790513 0 0.308443 -0.744647 0 
0.44779 -0.670165 0 0.569928 -0.569928 0 0.670165 -0.44779 0 
0.744647 -0.308443 0 0.790513 -0.157243 0 0.806 -1.97413e-16 0 
1.005 0 0 0.985689 0.196066 0 0.928499 0.384597 0 
0.835627 0.558348 0 0.710642 0.710642 0 0.558348 0.835627 0 
0.384597 0.928499 0 0.196066 0.985689 0 6.15385e-17 1.005 0 
-0.196066 0.985689 0 -0.384597 0.928499 0 -0.558348 0.835627 0 
-0.710642 0.710642 0 -0.835627 0.558348 0 -0.928499 0.384597 0 
-0.985689 0.196066 0 -1.005 1.23077e-16 0 -0.985689 -0.196066 0 
-0.928499 -0.384597 0 -0.835627 -0.558348 0 -0.710642 -0.710642 0 
-0.558348 -0.835627 0 -0.384597 -0.928499 0 -0.196066 -0.985689 0 
-1.84616e-16 -1.005 0 0.196066 -0.985689 0 0.384597 -0.928499 0 
0.558348 -0.835627 0 0.710642 -0.710642 0 0.835627 -0.558348 0 
0.928499 -0.384597 0 0.985689 -0.196066 0 1.005 -2.46154e-16 0 
1.204 0 0 1.18087 0.234889 0 1.11235 0.460751 0 
1.00109 0.668907 0 0.851357 0.851357 0 0.668907 1.00109 0 
0.460751 1.11235 0 0.234889 1.18087 0 7.37237e-17 1.204 0 
-0.234889 1.18087 0 -0.460751 1.11235 0 -0.668907 1.00109 0 
-0.851357 0.851357 0 -1.00109 0.668907 0 -1.11235 0.460751 0 
-1.18087 0.234889 0 -1.204 1.47447e-16 0 -1.18087 -0.234889 0 
-1.11235 -0.460751 0 -1.00109 -0.668907 0 -0.851357 -0.851357 0 
-0.668907 -1.00109 0 -0.460751 -1.11235 0 -0.234889 -1.18087 0 
-2.21171e-16 -1.204 0 0.234889 -1.18087 0 0.460751 -1.11235 0 
0.668907 -1.00109 0 0.851357 -0.851357 0 1.00109 -0.668907 0 
1.11235 -0.460751 0 1.18087 -0.234889 0 1.204 -2.94895e-16 0 
1.403 0 0 1.37604 0.273712 0 1.2962 0.536905 0 
1.16655 0.779465 0 0.992071 0.992071 0 0.779465 1.16655 0 
0.536905 1.2962 0 0.273712 1.37604 0 8.5909e-17 1.403 0 
-0.273712 1.37604 0 -0.536905 1.2962 0 -0.779465 1.16655 0 
-0.992071 0.992071 0 -1.16655 0.779465 0 -1.2962 0.536905 0 
-1.37604 0.273712 0 -1.403 1.71818e-16 0 -1.37604 -0.273712 0 
-1.2962 -0.536905 0 -1.16655 -0.779465 0 -0.992071 -0.992071 0 
-0.779465 -1.16655 0 -0.536905 -1.2962 0 -0.273712 -1.37604 0 
-2.57727e-16 -1.403 0 0.273712 -1.37604 0 0.536905 -1.2962 0 
0.779465 -1.16655 0 0.992071 -0.992071 0 1.16655 -0.779465 0 
1.2962 -0.536905 0 1.37604 -0.273712 0 1.403 -3.43636e-16 0 
1.602 0 0 1.57122 0.312535 0 1.48005 0.613059 0 
1.33201 0.890024 0 1.13279 1.13279 0 0.890024 1.33201 0 
0.613059 1.48005 0 0.312535 1.57122 0 9.80942e-17 1.602 0 
-0.312535 1.57122 0 -0.613059 1.48005 0 -0.890024 1.33201 0 
-1.13279 1.13279 0 -1.33201 0.890024 0 -1.48005 0.613059 0 
-1.57122 0.312535 0 -1.602 1.96188e-16 0 -1.57122 -0.312535 0 
-1.48005 -0.613059 0 -1.33201 -0.890024 0 -1.13279 -1.13279 0 
-0.890024 -1.33201 0 -0.613059 -1.48005 0 -0.312535 -1.57122 0 
-2.94283e-16 -1.602 0 0.312535 -1.57122 0 0.613059 -1.48005 0 
0.890024 -1.33201 0 1.13279 -1.13279 0 1.33201 -0.890024 0 
1.48005 -0.613059 0 1.57122 -0.312535 0 1.602 -3.92377e-16 0 
1.801 0 0 1.76639 0.351358 0 1.66391 0.689213 0 
1.49748 1.00058 0 1.2735 1.2735 0 1.00058 1.49748 0 
0.689213 1.66391 0 0.351358 1.76639 0 1.10279e-16 1.801 0 
-0.351358 1.76639 0 -0.689213 1.66391 0 -1.00058 1.49748 0 
-1.2735 1.2735 0 -1.49748 1.00058 0 -1.66391 0.689213 0 
-1.76639 0.351358 0 -1.801 2.20559e-16 0 -1.76639 -0.351358 0 
-1.66391 -0.689213 0 -1.49748 -1.00058 0 -1.2735 -1.2735 0 
-1.00058 -1.49748 0 -0.689213 -1.66391 0 -0.351358 -1.76639 0 
-3.30838e-16 -1.801 0 0.351358 -1.76639 0 0.689213 -1.66391 0 
1.00058 -1.49748 0 1.2735 -1.2735 0 1.49748 -1.00058 0 
1.66391 -0.689213 0 1.76639 -0.351358 0 1.801 -4.41118e-16 0 
2 0 0 1.96157 0.390181 0 1.84776 0.765367 0 
1.66294 1.11114 0 1.41421 1.41421 0 1.11114 1.66294 0 
0.765367 1.84776 0 0.390181 1.96157 0 1.22465e-16 2 0 
-0.390181 1.96157 0 -0.765367 1.84776 0 -1.11114 1.66294 0 
-1.41421 1.41421 0 -1.66294 1.11114 0 -1.84776 0.765367 0 
-1.96157 0.390181 0 -2 2.44929e-16 0 -1.96157 -0.390181 0 
-1.84776 -0.765367 0 -1.66294 -1.11114 0 -1.41421 -1.41421 0 
-1.11114 -1.66294 0 -0.765367 -1.84776 0 -0.390181 -1.96157 0 
-3.67394e-16 -2 0 0.390181 -1.96157 0 0.765367 -1.84776 0 
1.11114 -1.66294 0 1.41421 -1.41421 0 1.66294 -1.11114 0 
1.84776 -0.765367 0 1.96157 -0.390181 0 2 -4.89859e-16 0 

CELLS 320 1600
4 0 33 34 1 
4 1 34 35 2 
4 2 35 36 3 
4 3 36 37 4 
4 4 37 38 5 
4 5 38 39 6 
4 6 39 40 7 
4 7 40 41 8 
4 8 41 42 9 
4 9 42 43 10 
4 10 43 44 11 
4 11 44 45 12 
4 12 45 46 13 
4 13 46 47 14 
4 14 47 48 15 
4 15 48 49 16 
4 16 49 50 17 
4 17 50 51 18 
4 18 51 52 19 
4 19 52 53 20 
4 20 53 54 21 
4 21 54 55 22 
4 22 55 56 23 
4 23 56 57 24 
4 24 57 58 25 
4 25 58 59 26 
4 26 59 60 27 
4 27 60 61 28 
4 28 61 62 29 
4 29 62 63 30 
4 30 63 64 31 
4 31 64 65 32 
4 33 66 67 34 
4 34 67 68 35 
4 35 68 69 36 
4 36 69 70 37 
4 37 70 71 38 
4 38 71 72 39 
4 39 72 73 40 
4 40 73 74 41 
4 41 74 75 42 
4 42 75 76 43 
4 43 76 77 44 
4 44 77 78 45 
4 45 78 79 46 
4 46 79 80 47 
4 47 80 81 48 
4 48 81 82 49 
4 49 82 83 50 
4 50 83 84 51 
4 51 84 85 52 
4 52 85 86 53 
4 53 86 87 54 
4 54 87 88 55 
4 55 88 89 56 
4 56 89 90 57 
4 57 90 91 58 
4 58 91 92 59 
4 59 92 93 60 
4 60 93 94 61 
4 61 94 95 62 
4 62 95 96 63 
4 63 96 97 64 
4 64 97 98 65 
4 66 99 100 67 
4 67 100 101 68 
4 68 101 102 69 
4 69 102 103 70 
4 70 103 104 71 
4 71 104 105 72 
4 72 105 106 73 
4 73 106 107 74 
4 74 107 108 75 
4 75 108 109 76 
4 76 109 110 77 
4 77 110 111 78 
4 78 111 112 79 
4 79 112 113 80 
4 80 113 114 81 
4 81 114 115 82 
4 82 115 116 83 
4 83 116 117 84 
4 84 117 118 85 
4 85 118 119 86 
4 86 119 120 87 
4 87 120 121 88 
4 88 121 122 89 
4 89 122 123 90 
4 90 123 124 91 
4 91 124 125 92 
4 92 125 126 93 
4 93 126 127 94 
4 94 127 128 95 
4 95 128 129 96 
4 96 129 130 97 
4 97 130 131 98 
4 99 132 133 100 
4 100 133 134 101 
4 101 134 135 102 
4 102 135 136 103 
4 103 136 137 104 
4 104 137 138 105 
4 105 138 139 106 
4 106 139 140 107 
4 107 140 141 108 
4 108 141 142 109 
4 109 142 143 110 
4 110 143 144 111 
4 111 144 145 112 
4 112 145 146 113 
4 113 146 147 114 
4 114 147 148 115 
4 115 148 149 116 
4 116 149 150 117 
4 117 150 151 118 
4 118 151 152 119 
4 119 152 153 120 
4 120 153 154 121 
4 121 154 155 122 
4 122 155 156 123 
4 123 156 157 124 
4 124 157 158 125 
4 125 158 159 126 
4 126 159 160 127 
4 127 160 161 128 
4 128 161 162 129 
4 129 162 163 130 
4 130 163 164 131 
4 132 165 166 133 
4 133 166 167 134 
4 134 167 168 135 
4 135 168 169 136 
4 136 169 170 137 
4 137 170 171 138 
4 138 171 172 139 
4 139 172 173 140 
4 140 173 174 141 
4 141 174 175 142 
4 142 175 176 143 
4 143 176 177 144 
4 144 177 178 145 
4 145 178 179 146 
4 146 179 180 147 
4 147 180 181 148 
4 148 181 182 149 
4 149 182 183 150 
4 150 183 184 151 
4 151 184 185 152 
4 152 185 186 153 
4 153 186 187 154 
4 154 187 188 155 
4 155 188 189 156 
4 156 189 190 157 
4 157 190 191 158 
4 158 191 192 159 
4 159 192 193 160 
4 160 193 194 161 
4 161 194 195 162 
4 162 195 196 163 
4 163 196 197 164 
4 165 198 199 166 
4 166 199 200 167 
4 167 200 201 168 
4 168 201 202 169 
4 169 202 203 170 
4 170 203 204 171 
4 171 204 205 172 
4 172 205 206 173 
4 173 206 207 174 
4 174 207 208 175 
4 175 208 209 176 
4 176 209 210 177 
4 177 210 211 178 
4 178 211 212 179 
4 179 212 213 180 
4 180 213 214 181 
4 181 214 215 182 
4 182 215 216 183 
4 183 216 217 184 
4 184 217 218 185 
4 185 218 219 186 
4 186 219 220 187 
4 187 220 221 188 
4 188 221 222 189 
4 189 222 223 190 
4 190 223 224 191 
4 191 224 225 192 
4 192 225 226 193 
4 193 226 227 194 
4 194 227 228 195 
4 195 228 229 196 
4 196 229 230 197 
4 198 231 232 199 
4 199 232 233 200 
4 200 233 234 201 
4 201 234 235 202 
4 202 235 236 203 
4 203 236 237 204 
4 204 237 238 205 
4 205 238 239 206 
4 206 239 240 207 
4 207 240 241 208 
4 208 241 242 209 
4 209 242 243 210 
4 210 243 244 211 
4 211 244 245 212 
4 212 245 246 213 
4 213 246 247 214 
4 214 247 248 215 
4 215 248 249 216 
4 216 249 250 217 
4 217 250 251 218 
4 218 251 252 219 
4 219 252 253 220 
4 220 253 254 221 
4 221 254 255 222 
4 222 255 256 223 
4 223 256 257 224 
4 224 257 258 225 
4 225 258 259 226 
4 226 259 260 227 
4 227 260 261 228 
4 228 261 262 229 
4 229 262 263 230 
4 231 264 265 232 
4 232 265 266 233 
4 233 266 267 234 
4 234 267 268 235 
4 235 268 269 236 
4 236 269 270 237 
4 237 270 271 238 
4 238 271 272 239 
4 239 272 273 240 
4 240 273 274 241 
4 241 274 275 242 
4 242 275 276 243 
4 243 276 277 244 
4 244 277 278 245 
4 245 278 279 246 
4 246 279 280 247 
4 247 280 281 248 
4 248 281 282 249 
4 249 282 283 250 
4 250 283 284 251 
4 251 284 285 252 
4 252 285 286 253 
4 253 286 287 254 
4 254 287 288 255 
4 255 288 289 256 
4 256 289 290 257 
4 257 290 291 258 
4 258 291 292 259 
4 259 292 293 260 
4 260 293 294 261 
4 261 294 295 262 
4 262 295 296 263 
4 264 297 298 265 
4 265 298 299 266 
4 266 299 300 267 
4 267 300 301 268 
4 268 301 302 269 
4 269 302 303 270 
4 270 303 304 271 
4 271 304 305 272 
4 272 305 306 273 
4 273 306 307 274 
4 274 307 308 275 
4 275 308 309 276 
4 276 309 310 277 
4 277 310 311 278 
4 278 311 312 279 
4 279 312 313 280 
4 280 313 314 281 
4 281 314 315 282 
4 282 315 316 283 
4 283 316 317 284 
4 284 317 318 285 
4 285 318 319 286 
4 286 319 320 287 
4 287 320 321 288 
4 288 321 322 289 
4 289 322 323 290 
4 290 323 324 291 
4 291 324 325 292 
4 292 325 326 293 
4 293 326 327 294 
4 294 327 328 295 
4 295 328 329 296 
4 297 330 331 298 
4 298 331 332 299 
4 299 332 333 300 
4 300 333 334 301 
4 301 334 335 302 
4 302 335 336 303 
4 303 336 337 304 
4 304 337 338 305 
4 305 338 339 306 
4 306 339 340 307 
4 307 340 341 308 
4 308 341 342 309 
4 309 342 343 310 
4 310 343 344 311 
4 311 344 345 312 
4 312 345 346 313 
4 313 346 347 314 
4 314 347 348 315 
4 315 348 349 316 
4 316 349 350 317 
4 317 350 351 318 
4 318 351 352 319 
4 319 352 353 320 
4 320 353 354 321 
4 321 354 355 322 
4 322 355 356 323 
4 323 356 357 324 
4 324 357 358 325 
4 325 358 359 326 
4 326 359 360 327 
4 327 360 361 328 
4 328 361 362 329 

CELL_TYPES 320
9
9
9
9
9
9
9
9
9
9
9
9
9
9
9
9
9
9
9
9
9
9
9
9
9
9
9
9
9
9
9
9
9
9
9
9
9
9
9
9
9
9
9
9
9
9
9
9
9
9
9
9
9
9
9
9
9
9
9
9
9
9
9
9
9
9
9
9
9
9
9
9
9
9
9
9
9
9
9
9
9
9
9
9
9
9
9
9
9
9
9
9
9
9
9
9
9
9
9
9
9
9
9
9
9
9
9
9
9
9
9
9
9
9
9
9
9
9
9
9
9
9
9
9
9
9
9
9
9
9
9
9
9
9
9
9
9
9
9
9
9
9
9
9
9
9
9
9
9
9
9
9
9
9
9
9
9
9
9
9
9
9
9
9
9
9
9
9
9
9
9
9
9
9
9
9
9
9
9
9
9
9
9
9
9
9
9
9
9
9
9
9
9
9
9
9
9
9
9
9
9
9
9
9
9
9
9
9
9
9
9
9
9
9
9
9
9
9
9
9
9
9
9
9
9
9
9
9
9
9
9
9
9
9
9
9
9
9
9
9
9
9
9
9
9
9
9
9
9
9
9
9
9
9
9
9
9
9
9
9
9
9
9
9
9
9
9
9
9
9
9
9
9
9
9
9
9
9
9
9
9
9
9
9
9
9
9
9
9
9
9
9
9
9
9
9
9
9
9
9
9
9
9
9
9
9
9
9
9
9
9
9
9
9
9
9
9
9
9
9

POINT_DATA 363
FIELD FieldData 3
velocityOffset 3 363 double
-9.498831825 99.489209119 0 -28.714606237 95.668100553 0 -46.8169432 88.17347201 0 
-63.11118945 77.292509474 0 -76.971781788 63.442210624 0 -87.866193415 47.153535171 0 
-95.375379149 29.051198208 0 -99.209936805 9.8298529995 0 -99.221354875 -9.7724504847 0 
-95.407895061 -29.002534705 0 -87.914856917 -47.121019258 0 -77.029184303 -63.430792554 0 
-63.168591965 -77.303927544 0 -46.865606703 -88.205987923 0 -28.74712215 -95.716764055 0 
-9.5102498951 -99.546611634 0 10.104596241 -99.547736216 0 29.342329213 -95.719966593 0 
47.462404165 -88.21078086 0 63.767467383 -77.309581198 0 77.630308885 -63.436446208 0 
88.518059455 -47.125812195 0 96.012687998 -29.005737243 0 99.827008529 -9.7735750664 0 
99.815590459 9.8309775813 0 95.980172085 29.054400746 0 88.469395953 47.158328107 0 
77.57290637 63.447864279 0 63.710064868 77.298163128 0 47.413740663 88.178264947 0 
29.309813301 95.671303091 0 10.093178171 99.490333701 0 -9.498831825 99.489209119 0 
-0.16609932474 4.7323858616 0 -1.0750604127 4.5527288734 0 -1.9327562968 4.2010645435 0 
-2.7072355988 3.6900787472 0 -3.3693510611 3.0382567733 0 -3.8937859481 2.2693482671 0 
-4.2600074688 1.411652383 0 -4.4531135477 0.49712049923 0 -4.4645316179 -0.43971798437 0 
-4.2925233815 -1.3629888806 0 -3.9424494504 -2.2368323544 0 -3.4267535759 -3.0268387032 0 
-2.7646381137 -3.7014968173 0 -1.9814197992 -4.2335804562 0 -1.1075763254 -4.6013923757 0 
-0.17751739486 -4.7897883765 0 0.77186374062 -4.7909129582 0 1.7027833888 -4.6045949136 0 
2.5782172613 -4.2383733928 0 3.3635135319 -3.7071504716 0 4.0278781577 -3.0324923574 0 
4.5456519883 -2.241625291 0 4.8973163181 -1.3661914185 0 5.0701852721 -0.44084256612 0 
5.058767202 0.49824508098 0 4.8648004054 1.4148549208 0 4.4969884859 2.2741412037 0 
3.9704756428 3.0439104276 0 3.3061110171 3.6957324015 0 2.529553759 4.2058574801 0 
1.6702674761 4.5559314112 0 0.76044567049 4.7335104434 0 -0.16609932474 4.7323858616 0 
0.062644118896 2.4099147033 0 -0.39762056406 2.3195089792 0 -0.83265367666 2.1429173017 0 
-1.2267465338 1.8860976019 0 -1.5653699158 1.5577677083 0 -1.8356387062 1.1692456469 0 
-2.0267875747 0.73421253432 0 -2.1306423895 0.2683770556 0 -2.1420604596 -0.21097454074 0 
-2.0593034874 -0.685549032 0 -1.8843022086 -1.1367297342 0 -1.6227724307 -1.5463496382 0 
-1.2841490487 -1.8975156721 0 -0.88131717899 -2.1754332144 0 -0.43013647676 -2.3681724816 0 
0.051226048773 -2.4673172182 0 0.54312029698 -2.4684417999 0 1.0253435401 -2.3713750194 0 
1.4781146411 -2.180226151 0 1.883024467 -1.9031693263 0 2.2238970124 -1.5520032925 0 
2.4875047464 -1.1415226709 0 2.664096424 -0.68875156987 0 2.7477141138 -0.21209912249 0 
2.7362960437 0.26950163735 0 2.6315805113 0.73741507219 0 2.4388412441 1.1740385836 0 
2.1664944976 1.5634213626 0 1.8256219521 1.8917512562 0 1.4294511388 2.1477102383 0 
0.99282762743 2.3227115171 0 0.53170222686 2.4110392851 0 0.062644118896 2.4099147033 0 
0.14140421728 1.6102500047 0 -0.16436697532 1.5505749465 0 -0.45387040217 1.4342636385 0 
-0.71699000242 1.2649574712 0 -0.94422978508 1.0480111769 0 -1.1269850431 0.79046237242 0 
-1.2578535419 0.50095894558 0 -1.3309776908 0.18961695721 0 -1.3423957609 -0.13221444236 0 
-1.2903694546 -0.45229544325 0 -1.1756485454 -0.75794645972 0 -1.0016322999 -1.0365931068 0 
-0.77439251727 -1.2763755413 0 -0.50253390449 -1.4667795512 0 -0.19688288802 -1.5992384488 0 
0.12998614716 -1.6676525196 0 0.4643601986 -1.6687771013 0 0.79208995138 -1.6024409867 0 
1.0993313666 -1.4715724878 0 1.3732679355 -1.2820291956 0 1.6027568817 -1.042246761 0 
1.7788510833 -0.76273939636 0 1.8951623913 -0.45549798113 0 1.9480494152 -0.13333902411 0 
1.9366313451 0.19074153896 0 1.8626464786 0.50416148345 0 1.730187581 0.79525530906 0 
1.5453543668 1.0536648312 0 1.3158654207 1.2706111254 0 1.0506678643 1.4390565751 0 
0.75957403868 1.5537774844 0 0.45294212847 1.6113745864 0 0.14140421728 1.6102500047 0 
0.18127285269 1.2054569563 0 -0.046293198389 1.1613378679 0 -0.26212899275 1.0755406924 0 
-0.45894947534 0.95053417921 0 -0.62980649309 0.78997064983 0 -0.76826209696 0.598720963 0 
-0.86861646334 0.38288516864 0 -0.92618464237 0.1497483218 0 -0.9376027125 -0.092345806945 0 
-0.90113237604 -0.33422166632 0 -0.81692559928 -0.5662050503 0 -0.68720900795 -0.77855257971 0 
-0.51635199019 -0.96195224933 0 -0.31079249507 -1.1080566051 0 -0.078809111087 -1.2100013702 0 
0.16985478257 -1.2628594711 0 0.42449156319 -1.2639840529 0 0.67401617445 -1.2132039081 0 
0.9075899572 -1.1128495417 0 1.1152274084 -0.96760590358 0 1.2883335897 -0.78420623395 0 
1.4201281372 -0.57099798694 0 1.5059253127 -0.33742420419 0 1.5432563667 -0.093470388695 0 
1.5318382966 0.15087290355 0 1.4734094 0.38608770652 0 1.3714646348 0.60351389964 0 
1.2309310748 0.79562430407 0 1.0578248936 0.95618783345 0 0.85892645487 1.080333629 0 
0.64150026175 1.1645404058 0 0.41307349306 1.206581538 0 0.18127285269 1.2054569563 0 
0.20535271507 0.96097001058 0 0.025021013151 0.92624641844 0 -0.1463209972 0.8588791717 0 
-0.30309813212 0.76062876803 0 -0.43990108191 0.63411930661 0 -0.55160057627 0.48291296746 0 
-0.63352501387 0.31157095711 0 -0.68169769669 0.12566845942 0 -0.69311576682 -0.068265944563 0 
-0.66604092657 -0.26290745478 0 -0.60026407859 -0.45039705476 0 -0.49730359676 -0.62270123649 0 
-0.36050064697 -0.77204683815 0 -0.19498449953 -0.8913950844 0 -0.0074948995475 -0.97490992076 0 
0.19393464495 -1.0183725254 0 0.4004117008 -1.0194971072 0 0.60270196291 -0.97811245864 0 
0.79178196165 -0.89618802103 0 0.95937606522 -0.7777004924 0 1.0984281785 -0.62835489073 0 
1.2034666165 -0.4551899914 0 1.2708338632 -0.26610999266 0 1.2987694211 -0.069390526313 0 
1.2873513509 0.12679304117 0 1.2383179505 0.31477349498 0 1.1548031141 0.4877059041 0 
1.0410256637 0.63977296085 0 0.90197355037 0.76628242227 0 0.74311845933 0.86367210834 0 
0.57018605021 0.92944895631 0 0.38899363068 0.96209459233 0 0.20535271507 0.96097001058 0 
0.22147262295 0.7973018393 0 0.072761257754 0.7688679232 0 -0.0687950467 0.71383831981 0 
-0.19876575451 0.63349939808 0 -0.31277171197 0.52978692901 0 -0.40655972438 0.40538701696 0 
-0.47614651863 0.2638307125 0 -0.51802952542 0.10954855154 0 -0.52944759554 -0.052146036689 0 
-0.50866243133 -0.21516721018 0 -0.4552232267 -0.37287110426 0 -0.37017422682 -0.51836885888 0 
-0.25616826937 -0.64491746821 0 -0.11745854902 -0.74635423251 0 0.040245345055 -0.81753142552 0 
0.21005455282 -0.85470435415 0 0.38429179293 -0.8558289359 0 0.55496171831 -0.8207339634 0 
0.71425601115 -0.75114716914 0 0.85504368762 -0.65057112245 0 0.97129880857 -0.52402251313 0 
1.0584257646 -0.37766404089 0 1.113455368 -0.21836974805 0 1.1351012498 -0.053270618439 0 
1.1236831797 0.11067313329 0 1.0809394553 0.26703325038 0 1.0097622623 0.41017995359 0 
0.91389629372 0.53544058325 0 0.79764117276 0.63915305233 0 0.66559250883 0.71863125644 0 
0.52244580561 0.77207046107 0 0.37287372281 0.79842642105 0 0.22147262295 0.7973018393 0 
0.23301967028 0.68006270022 0 0.10695865321 0.65613421849 0 -0.013261489853 0.60994234251 0 
-0.12403015972 0.54243381234 0 -0.22170612623 0.45505133421 0 -0.30266374708 0.34985346011 0 
-0.36341281392 0.22963331705 0 -0.40079038634 0.098001504207 0 -0.41220845646 -0.040598989352 0 
-0.39592872661 -0.18096981472 0 -0.3513272494 -0.31733754741 0 -0.27910864108 -0.44363326409 0 
-0.18143267458 -0.55385188247 0 -0.061924992177 -0.64245825521 0 0.074442740511 -0.70479772081 0 
0.22160160016 -0.73746521507 0 0.37274474559 -0.73858979682 0 0.52076432285 -0.70800025868 0 
0.6587224543 -0.64725119184 0 0.78030809283 -0.55950553671 0 0.88023322283 -0.44928691834 0 
0.95452978727 -0.32213048405 0 1.0007216633 -0.1841723526 0 1.0178621107 -0.041723571102 0 
1.0064440406 0.099126085957 0 0.96820575055 0.23283585492 0 0.90586628495 0.35464639675 0 
0.82283070798 0.46070498846 0 0.72290557797 0.54808746659 0 0.61005895198 0.61473527914 0 
0.48824841015 0.65933675636 0 0.36132667547 0.68118728197 0 0.23301967028 0.68006270022 0 
0.24169797552 0.59195038845 0 0.13266006652 0.57140801344 0 0.028475340636 0.53185822474 0 
-0.067861835048 0.4739925107 0 -0.15326482458 0.39888300954 0 -0.22457962931 0.30811662962 0 
-0.27868660887 0.20393190373 0 -0.31267807457 0.089323198968 0 -0.32409614469 -0.031920684113 0 
-0.31120252157 -0.15526840141 0 -0.27324313163 -0.27560071692 0 -0.21066733944 -0.38746493942 0 
-0.1252643499 -0.48541058083 0 -0.020188161687 -0.56437413744 0 0.10014415383 -0.62007151577 0 
0.2302799054 -0.6493529033 0 0.36406644035 -0.65047748505 0 0.49506290954 -0.62327405364 0 
0.61698562381 -0.56916707407 0 0.72413976815 -0.49106423507 0 0.81179192119 -0.39311859366 0 
0.8764456695 -0.28039365356 0 0.91599545821 -0.15847093928 0 0.92974979893 -0.033045265863 0 
0.91833172881 0.090447780718 0 0.88347954551 0.20713444161 0 0.82778216718 0.31290956626 0 
0.75438940633 0.40453666378 0 0.6667372533 0.47964616495 0 0.56832212149 0.53665116137 0 
0.46254699684 0.57461055132 0 0.35264837023 0.5930749702 0 0.24169797552 0.59195038845 0 
0.2484584765 0.52330987017 0 0.15268176718 0.50540531179 0 0.060988818246 0.47102978652 0 
-0.024106055193 0.42067593868 0 -0.099948252565 0.35512722969 0 -0.16375119109 0.27560315201 0 
-0.21268390722 0.18391020308 0 -0.24403755629 0.082562697996 0 -0.25545562641 -0.025160183141 0 
-0.24519981992 -0.13524670075 0 -0.21241469341 -0.24308723931 0 -0.15735076742 -0.34370915956 0 
-0.081508570048 -0.43209400881 0 0.012325315923 -0.50354569922 0 0.12016585448 -0.55406881411 0 
0.23704040637 -0.58071238503 0 0.35730593938 -0.58183696678 0 0.47504120888 -0.55727135199 0 
0.5844721462 -0.50833863585 0 0.6803839883 -0.43774766305 0 0.75847534917 -0.34936281381 0 
0.81561723129 -0.24788017595 0 0.84999275656 -0.13844923863 0 0.86110928066 -0.026284764891 0 
0.84969121053 0.083687279746 0 0.81747684386 0.18711274095 0 0.76695372896 0.28039608865 0 
0.70107283432 0.36078088393 0 0.62298147344 0.42632959293 0 0.53580864388 0.47582272316 0 
0.44252529618 0.50860784966 0 0.34588786926 0.52443445192 0 0.2484584765 0.52330987017 0 
0.25387363777 0.46832881503 0 0.1687191494 0.45253714777 0 0.087032113812 0.42230620751 0 
0.010942324471 0.3779693645 0 -0.057241678379 0.32007885002 0 -0.11502761208 0.24955985644 0 
-0.1598157432 0.16787282085 0 -0.18905650115 0.077147536717 0 -0.20047457128 -0.019745021862 0 
-0.1923316559 -0.11920931853 0 -0.1636911144 -0.21704394375 0 -0.11464419323 -0.3086607799 0 
-0.046460190384 -0.38938743462 0 0.038368611489 -0.45482212021 0 0.13620323671 -0.50120065009 0 
0.24245556765 -0.52573132989 0 0.3518907781 -0.52685591164 0 0.45900382666 -0.50440318796 0 
0.55842885064 -0.45961505684 0 0.64533560863 -0.39504108887 0 0.71576877498 -0.31431443414 0 
0.76689365227 -0.22183688038 0 0.79712459253 -0.1224118564 0 0.80612822552 -0.020869603612 0 
0.7947101554 0.078272118467 0 0.76460867983 0.17107535873 0 0.71823014995 0.25435279308 0 
0.65836626013 0.32573250427 0 0.58793309378 0.38362301874 0 0.50976534831 0.42709914414 0 
0.42648791396 0.45573968564 0 0.34047270798 0.46945339678 0 0.25387363777 0.46832881503 0 

velocityExact 3 363 double
0.3 100 0 -19.209032202 98.07852804 0 -37.968343237 92.387953251 0 
-55.257023302 83.14696123 0 -70.410678119 70.710678119 0 -82.84696123 55.557023302 0 
-92.087953251 38.268343237 0 -97.77852804 19.509032202 0 -99.7 6.1232339957e-15 0 
-97.77852804 -19.509032202 0 -92.087953251 -38.268343237 0 -82.84696123 -55.557023302 0 
-70.410678119 -70.710678119 0 -55.257023302 -83.14696123 0 -37.968343237 -92.387953251 0 
-19.209032202 -98.07852804 0 0.3 -100 0 19.809032202 -98.07852804 0 
38.568343237 -92.387953251 0 55.857023302 -83.14696123 0 71.010678119 -70.710678119 0 
83.44696123 -55.557023302 0 92.687953251 -38.268343237 0 98.37852804 -19.509032202 0 
100.3 -1.8369701987e-14 0 98.37852804 19.509032202 0 92.687953251 38.268343237 0 
83.44696123 55.557023302 0 71.010678119 70.710678119 0 55.857023302 83.14696123 0 
38.568343237 92.387953251 0 19.809032202 98.07852804 0 0.3 100 0 
0.3 4.7846889952 0 -0.63344651682 4.6927525378 0 -1.5310212075 4.4204762321 0 
-2.35823078 3.9783235038 0 -3.0832860344 3.3832860344 0 -3.6783235038 2.65823078 0 
-4.1204762321 1.8310212075 0 -4.3927525378 0.93344651682 0 -4.4846889952 2.9297770315e-16 0 
-4.3927525378 -0.93344651682 0 -4.1204762321 -1.8310212075 0 -3.6783235038 -2.65823078 0 
-3.0832860344 -3.3832860344 0 -2.35823078 -3.9783235038 0 -1.5310212075 -4.4204762321 0 
-0.63344651682 -4.6927525378 0 0.3 -4.7846889952 0 1.2334465168 -4.6927525378 0 
2.1310212075 -4.4204762321 0 2.95823078 -3.9783235038 0 3.6832860344 -3.3832860344 0 
4.2783235038 -2.65823078 0 4.7204762321 -1.8310212075 0 4.9927525378 -0.93344651682 0 
5.0846889952 -8.7893310944e-16 0 4.9927525378 0.93344651682 0 4.7204762321 1.8310212075 0 
4.2783235038 2.65823078 0 3.6832860344 3.3832860344 0 2.95823078 3.9783235038 0 
2.1310212075 4.4204762321 0 1.2334465168 4.6927525378 0 0.3 4.7846889952 0 
0.3 2.4509803922 0 -0.17816255396 2.4038854912 0 -0.63794958913 2.2644106189 0 
-1.0616917476 2.0379157164 0 -1.4331048558 1.7331048558 0 -1.7379157164 1.3616917476 0 
-1.9644106189 0.93794958913 0 -2.1038854912 0.47816255396 0 -2.1509803922 1.500792646e-16 0 
-2.1038854912 -0.47816255396 0 -1.9644106189 -0.93794958913 0 -1.7379157164 -1.3616917476 0 
-1.4331048558 -1.7331048558 0 -1.0616917476 -2.0379157164 0 -0.63794958913 -2.2644106189 0 
-0.17816255396 -2.4038854912 0 0.3 -2.4509803922 0 0.77816255396 -2.4038854912 0 
1.2379495891 -2.2644106189 0 1.6616917476 -2.0379157164 0 2.0331048558 -1.7331048558 0 
2.3379157164 -1.3616917476 0 2.5644106189 -0.93794958913 0 2.7038854912 -0.47816255396 0 
2.7509803922 -4.502377938e-16 0 2.7038854912 0.47816255396 0 2.5644106189 0.93794958913 0 
2.3379157164 1.3616917476 0 2.0331048558 1.7331048558 0 1.6616917476 2.0379157164 0 
1.2379495891 2.2644106189 0 0.77816255396 2.4038854912 0 0.3 2.4509803922 0 
0.3 1.647446458 0 -0.021400859994 1.6157912362 0 -0.33045046518 1.5220420634 0 
-0.61527221255 1.3698016677 0 -0.86492056209 1.1649205621 0 -1.0698016677 0.91527221255 0 
-1.2220420634 0.63045046518 0 -1.3157912362 0.32140085999 0 -1.347446458 1.0087700158e-16 0 
-1.3157912362 -0.32140085999 0 -1.2220420634 -0.63045046518 0 -1.0698016677 -0.91527221255 0 
-0.86492056209 -1.1649205621 0 -0.61527221255 -1.3698016677 0 -0.33045046518 -1.5220420634 0 
-0.021400859994 -1.6157912362 0 0.3 -1.647446458 0 0.62140085999 -1.6157912362 0 
0.93045046518 -1.5220420634 0 1.2152722126 -1.3698016677 0 1.4649205621 -1.1649205621 0 
1.6698016677 -0.91527221255 0 1.8220420634 -0.63045046518 0 1.9157912362 -0.32140085999 0 
1.947446458 -3.0263100473e-16 0 1.9157912362 0.32140085999 0 1.8220420634 0.63045046518 0 
1.6698016677 0.91527221255 0 1.4649205621 1.1649205621 0 1.2152722126 1.3698016677 0 
0.93045046518 1.5220420634 0 0.62140085999 1.6157912362 0 0.3 1.647446458 0 
0.3 1.2406947891 0 0.057952454074 1.2168551866 0 -0.1747933404 1.1462525217 0 
-0.38929309308 1.0316000153 0 -0.57730369874 0.87730369874 0 -0.73160001526 0.68929309308 0 
-0.84625252173 0.4747933404 0 -0.9168551866 0.24204754593 0 -0.94069478908 7.5970645108e-17 0 
-0.9168551866 -0.24204754593 0 -0.84625252173 -0.4747933404 0 -0.73160001526 -0.68929309308 0 
-0.57730369874 -0.87730369874 0 -0.38929309308 -1.0316000153 0 -0.1747933404 -1.1462525217 0 
0.057952454074 -1.2168551866 0 0.3 -1.2406947891 0 0.54204754593 -1.2168551866 0 
0.7747933404 -1.1462525217 0 0.98929309308 -1.0316000153 0 1.1773036987 -0.87730369874 0 
1.3316000153 -0.68929309308 0 1.4462525217 -0.4747933404 0 1.5168551866 -0.24204754593 0 
1.5406947891 -2.2791193533e-16 0 1.5168551866 0.24204754593 0 1.4462525217 0.4747933404 0 
1.3316000153 0.68929309308 0 1.1773036987 0.87730369874 0 0.98929309308 1.0316000153 0 
0.7747933404 1.1462525217 0 0.54204754593 1.2168551866 0 0.3 1.2406947891 0 
0.3 0.99502487562 0 0.1058802766 0.97590575165 0 -0.080779534692 0.91928311693 0 