# vtk DataFile Version 4.0
vtk output
ASCII
DATASET UNSTRUCTURED_GRID
POINTS 48 float
0 0 0 0.666667 0 0 0.666667 0.25 0 
0 0.25 0 0 0.25 0 0.666667 0.25 0 
0.666667 0.5 0 0 0.5 0 0 0.5 0 
0.666667 0.5 0 0.666667 0.75 0 0 0.75 0 
0 0.75 0 0.666667 0.75 0 0.666667 1 0 
0 1 0 0.666667 0 0 1.33333 0 0 
1.33333 0.25 0 0.666667 0.25 0 0.666667 0.25 0 
1.33333 0.25 0 1.33333 0.5 0 0.666667 0.5 0 
0.666667 0.5 0 1.33333 0.5 0 1.33333 0.75 0 
0.666667 0.75 0 0.666667 0.75 0 1.33333 0.75 0 
1.33333 1 0 0.666667 1 0 1.33333 0 0 
2 0 0 2 0.25 0 1.33333 0.25 0 
1.33333 0.25 0 2 0.25 0 2 0.5 0 
1.33333 0.5 0 1.33333 0.5 0 2 0.5 0 
2 0.75 0 1.33333 0.75 0 1.33333 0.75 0 
2 0.75 0 2 1 0 1.33333 1 0 

CELLS 12 60
4 0 1 2 3 
4 4 5 6 7 
4 8 9 10 11 
4 12 13 14 15 
4 16 17 18 19 
4 20 21 22 23 
4 24 25 26 27 
4 28 29 30 31 
4 32 33 34 35 
4 36 37 38 39 
4 40 41 42 43 
4 44 45 46 47 

CELL_TYPES 12
9
9
9
9
9
9
9
9
9
9
9
9

POINT_DATA 48
SCALARS scalars double 3
LOOKUP_TABLE default
0 0 0 0.666667 0 0 0.666667 0 0 
0 0 0 0 0 0 0.666667 0 0 
0.666667 0 0 0 0 0 0 0 0 
0.666667 0 0 0.666667 0 0 0 0 0 
0 0 0 0.666667 0 0 0.666667 0 0 
0 0 0 0.666667 0 0 1.33333 0 0 
1.33333 0 0 0.666667 0 0 0.666667 0 0 
1.33333 0 0 1.33333 0 0 0.666667 0 0 
0.666667 0 0 1.33333 0 0 1.33333 0 0 
0.666667 0 0 0.666667 0 0 1.33333 0 0 
1.33333 0 0 0.666667 0 0 1.33333 0 0 
2 0 0 2 0 0 1.33333 0 0 
1.33333 0 0 2 0 0 2 0 0 
1.33333 0 0 1.33333 0 0 2 0 0 
2 0 0 1.33333 0 0 1.33333 0 0 
2 0 0 2 0 0 1.33333 0 0 

