# vtk DataFile Version 4.0
vtk output
ASCII
DATASET UNSTRUCTURED_GRID
POINTS 20 float
0 0 0 0 0.25 0 0 0.5 0 
0 0.75 0 0 1 0 0.666667 0 0 
0.666667 0.25 0 0.666667 0.5 0 0.666667 0.75 0 
0.666667 1 0 1.33333 0 0 1.33333 0.25 0 
1.33333 0.5 0 1.33333 0.75 0 1.33333 1 0 
2 0 0 2 0.25 0 2 0.5 0 
2 0.75 0 2 1 0 
CELLS 12 60
4 0 5 6 1 
4 1 6 7 2 
4 2 7 8 3 
4 3 8 9 4 
4 5 10 11 6 
4 6 11 12 7 
4 7 12 13 8 
4 8 13 14 9 
4 10 15 16 11 
4 11 16 17 12 
4 12 17 18 13 
4 13 18 19 14 

CELL_TYPES 12
9
9
9
9
9
9
9
9
9
9
9
9

POINT_DATA 20
SCALARS scalars double 3
LOOKUP_TABLE default
0 0 0 0 0 0 0 0 0 
0 0 0 0 0 0 0.666667 0 0 
0.666667 0 0 0.666667 0 0 0.666667 0 0 
0.666667 0 0 1.33333 0 0 1.33333 0 0 
1.33333 0 0 1.33333 0 0 1.33333 0 0 
2 0 0 2 0 0 2 0 0 
2 0 0 2 0 0 
