# vtk DataFile Version 4.1
vtk output
ASCII
DATASET UNSTRUCTURED_GRID
POINTS 240 float
0 0 0 0.4 0 0 0.34641 0.2 0 
0 0 0 0 0 0 0.34641 0.2 0 
0.2 0.34641 0 0 0 0 0 0 0 
0.2 0.34641 0 2.44929e-17 0.4 0 0 0 0 
0 0 0 2.44929e-17 0.4 0 -0.2 0.34641 0 
-0 0 0 -0 0 0 -0.2 0.34641 0 
-0.34641 0.2 0 -0 0 0 -0 0 0 
-0.34641 0.2 0 -0.4 2.26622e-16 0 -0 0 0 
-0 0 0 -0.4 4.89859e-17 0 -0.34641 -0.2 0 
-0 -0 0 -0 -0 0 -0.34641 -0.2 0 
-0.2 -0.34641 0 -0 -0 0 -0 -0 0 
-0.2 -0.34641 0 -7.34788e-17 -0.4 0 -0 -0 0 
-0 -0 0 -7.34788e-17 -0.4 0 0.2 -0.34641 0 
0 -0 0 0 -0 0 0.2 -0.34641 0 
0.34641 -0.2 0 0 -0 0 0 -0 0 
0.34641 -0.2 0 0.4 -9.79717e-17 0 0 -0 0 
0.4 0 0 0.8 0 0 0.69282 0.4 0 
0.34641 0.2 0 0.34641 0.2 0 0.69282 0.4 0 
0.4 0.69282 0 0.2 0.34641 0 0.2 0.34641 0 
0.4 0.69282 0 4.89859e-17 0.8 0 2.44929e-17 0.4 0 
2.44929e-17 0.4 0 4.89859e-17 0.8 0 -0.4 0.69282 0 
-0.2 0.34641 0 -0.2 0.34641 0 -0.4 0.69282 0 
-0.69282 0.4 0 -0.34641 0.2 0 -0.34641 0.2 0 
-0.69282 0.4 0 -0.8 4.53243e-16 0 -0.4 2.26622e-16 0 
-0.4 4.89859e-17 0 -0.8 9.79717e-17 0 -0.69282 -0.4 0 
-0.34641 -0.2 0 -0.34641 -0.2 0 -0.69282 -0.4 0 
-0.4 -0.69282 0 -0.2 -0.34641 0 -0.2 -0.34641 0 
-0.4 -0.69282 0 -1.46958e-16 -0.8 0 -7.34788e-17 -0.4 0 
-7.34788e-17 -0.4 0 -1.46958e-16 -0.8 0 0.4 -0.69282 0 
0.2 -0.34641 0 0.2 -0.34641 0 0.4 -0.69282 0 
0.69282 -0.4 0 0.34641 -0.2 0 0.34641 -0.2 0 
0.69282 -0.4 0 0.8 -1.95943e-16 0 0.4 -9.79717e-17 0 
0.8 0 0 1.2 0 0 1.03923 0.6 0 
0.69282 0.4 0 0.69282 0.4 0 1.03923 0.6 0 
0.6 1.03923 0 0.4 0.69282 0 0.4 0.69282 0 
0.6 1.03923 0 7.34788e-17 1.2 0 4.89859e-17 0.8 0 
4.89859e-17 0.8 0 7.34788e-17 1.2 0 -0.6 1.03923 0 
-0.4 0.69282 0 -0.4 0.69282 0 -0.6 1.03923 0 
-1.03923 0.6 0 -0.69282 0.4 0 -0.69282 0.4 0 
-1.03923 0.6 0 -1.2 6.79865e-16 0 -0.8 4.53243e-16 0 
-0.8 9.79717e-17 0 -1.2 1.46958e-16 0 -1.03923 -0.6 0 
-0.69282 -0.4 0 -0.69282 -0.4 0 -1.03923 -0.6 0 
-0.6 -1.03923 0 -0.4 -0.69282 0 -0.4 -0.69282 0 
-0.6 -1.03923 0 -2.20436e-16 -1.2 0 -1.46958e-16 -0.8 0 
-1.46958e-16 -0.8 0 -2.20436e-16 -1.2 0 0.6 -1.03923 0 
0.4 -0.69282 0 0.4 -0.69282 0 0.6 -1.03923 0 
1.03923 -0.6 0 0.69282 -0.4 0 0.69282 -0.4 0 
1.03923 -0.6 0 1.2 -2.93915e-16 0 0.8 -1.95943e-16 0 
1.2 0 0 1.6 0 0 1.38564 0.8 0 
1.03923 0.6 0 1.03923 0.6 0 1.38564 0.8 0 
0.8 1.38564 0 0.6 1.03923 0 0.6 1.03923 0 
0.8 1.38564 0 9.79717e-17 1.6 0 7.34788e-17 1.2 0 
7.34788e-17 1.2 0 9.79717e-17 1.6 0 -0.8 1.38564 0 
-0.6 1.03923 0 -0.6 1.03923 0 -0.8 1.38564 0 
-1.38564 0.8 0 -1.03923 0.6 0 -1.03923 0.6 0 
-1.38564 0.8 0 -1.6 9.06486e-16 0 -1.2 6.79865e-16 0 
-1.2 1.46958e-16 0 -1.6 1.95943e-16 0 -1.38564 -0.8 0 
-1.03923 -0.6 0 -1.03923 -0.6 0 -1.38564 -0.8 0 
-0.8 -1.38564 0 -0.6 -1.03923 0 -0.6 -1.03923 0 
-0.8 -1.38564 0 -2.93915e-16 -1.6 0 -2.20436e-16 -1.2 0 
-2.20436e-16 -1.2 0 -2.93915e-16 -1.6 0 0.8 -1.38564 0 
0.6 -1.03923 0 0.6 -1.03923 0 0.8 -1.38564 0 
1.38564 -0.8 0 1.03923 -0.6 0 1.03923 -0.6 0 
1.38564 -0.8 0 1.6 -3.91887e-16 0 1.2 -2.93915e-16 0 
1.6 0 0 2 0 0 1.73205 1 0 
1.38564 0.8 0 1.38564 0.8 0 1.73205 1 0 
1 1.73205 0 0.8 1.38564 0 0.8 1.38564 0 
1 1.73205 0 1.22465e-16 2 0 9.79717e-17 1.6 0 
9.79717e-17 1.6 0 1.22465e-16 2 0 -1 1.73205 0 
-0.8 1.38564 0 -0.8 1.38564 0 -1 1.73205 0 
-1.73205 1 0 -1.38564 0.8 0 -1.38564 0.8 0 
-1.73205 1 0 -2 1.13311e-15 0 -1.6 9.06486e-16 0 
-1.6 1.95943e-16 0 -2 2.44929e-16 0 -1.73205 -1 0 
-1.38564 -0.8 0 -1.38564 -0.8 0 -1.73205 -1 0 
-1 -1.73205 0 -0.8 -1.38564 0 -0.8 -1.38564 0 
-1 -1.73205 0 -3.67394e-16 -2 0 -2.93915e-16 -1.6 0 
-2.93915e-16 -1.6 0 -3.67394e-16 -2 0 1 -1.73205 0 
0.8 -1.38564 0 0.8 -1.38564 0 1 -1.73205 0 
1.73205 -1 0 1.38564 -0.8 0 1.38564 -0.8 0 
1.73205 -1 0 2 -4.89859e-16 0 1.6 -3.91887e-16 0 

CELLS 60 300
4 0 1 2 3 
4 4 5 6 7 
4 8 9 10 11 
4 12 13 14 15 
4 16 17 18 19 
4 20 21 22 23 
4 24 25 26 27 
4 28 29 30 31 
4 32 33 34 35 
4 36 37 38 39 
4 40 41 42 43 
4 44 45 46 47 
4 48 49 50 51 
4 52 53 54 55 
4 56 57 58 59 
4 60 61 62 63 
4 64 65 66 67 
4 68 69 70 71 
4 72 73 74 75 
4 76 77 78 79 
4 80 81 82 83 
4 84 85 86 87 
4 88 89 90 91 
4 92 93 94 95 
4 96 97 98 99 
4 100 101 102 103 
4 104 105 106 107 
4 108 109 110 111 
4 112 113 114 115 
4 116 117 118 119 
4 120 121 122 123 
4 124 125 126 127 
4 128 129 130 131 
4 132 133 134 135 
4 136 137 138 139 
4 140 141 142 143 
4 144 145 146 147 
4 148 149 150 151 
4 152 153 154 155 
4 156 157 158 159 
4 160 161 162 163 
4 164 165 166 167 
4 168 169 170 171 
4 172 173 174 175 
4 176 177 178 179 
4 180 181 182 183 
4 184 185 186 187 
4 188 189 190 191 
4 192 193 194 195 
4 196 197 198 199 
4 200 201 202 203 
4 204 205 206 207 
4 208 209 210 211 
4 212 213 214 215 
4 216 217 218 219 
4 220 221 222 223 
4 224 225 226 227 
4 228 229 230 231 
4 232 233 234 235 
4 236 237 238 239 

CELL_TYPES 60
9
9
9
9
9
9
9
9
9
9
9
9
9
9
9
9
9
9
9
9
9
9
9
9
9
9
9
9
9
9
9
9
9
9
9
9
9
9
9
9
9
9
9
9
9
9
9
9
9
9
9
9
9
9
9
9
9
9
9
9

POINT_DATA 240
SCALARS scalars double 3
LOOKUP_TABLE default
-0 0 0 -0 2.4999998065 0 -1.2499999648 2.1650633774 0 
-0 0 0 -0 0 0 -1.2499999648 2.1650633774 0 
-2.1650633774 1.2499999648 0 -0 0 0 -0 0 0 
-2.1650633774 1.2499999648 0 -2.4999998065 1.530808321e-16 0 -0 0 0 
-0 0 0 -2.4999998065 1.530808321e-16 0 -2.1650633774 -1.2499999648 0 
-0 -0 0 -0 -0 0 -2.1650633774 -1.2499999648 0 
-1.2499999648 -2.1650633774 0 -0 -0 0 -0 -0 0 
-1.2499999648 -2.1650633774 0 -1.4163845409e-15 -2.4999998065 0 -0 -0 0 
-0 -0 0 -3.0616166421e-16 -2.4999998065 0 1.2499999648 -2.1650633774 0 
0 -0 0 0 -0 0 1.2499999648 -2.1650633774 0 
2.1650633774 -1.2499999648 0 0 -0 0 0 -0 0 
2.1650633774 -1.2499999648 0 2.4999998065 -4.5924252733e-16 0 0 -0 0 
0 -0 0 2.4999998065 -4.5924252733e-16 0 2.1650633774 1.2499999648 0 
0 0 0 0 0 0 2.1650633774 1.2499999648 0 
1.2499999648 2.1650633774 0 0 0 0 0 0 0 
1.2499999648 2.1650633774 0 6.1232332841e-16 2.4999998065 0 0 0 0 
-0 2.4999998065 0 -0 1.2499999618 0 -0.62500001172 1.0825317395 0 
-1.2499999648 2.1650633774 0 -1.2499999648 2.1650633774 0 -0.62500001172 1.0825317395 0 
-1.0825317395 0.62500001172 0 -2.1650633774 1.2499999648 0 -2.1650633774 1.2499999648 0 
-1.0825317395 0.62500001172 0 -1.2499999618 7.654041964e-17 0 -2.4999998065 1.530808321e-16 0 
-2.4999998065 1.530808321e-16 0 -1.2499999618 7.654041964e-17 0 -1.0825317395 -0.62500001172 0 
-2.1650633774 -1.2499999648 0 -2.1650633774 -1.2499999648 0 -1.0825317395 -0.62500001172 0 
-0.62500001172 -1.0825317395 0 -1.2499999648 -2.1650633774 0 -1.2499999648 -2.1650633774 0 
-0.62500001172 -1.0825317395 0 -7.0819230363e-16 -1.2499999618 0 -1.4163845409e-15 -2.4999998065 0 
-3.0616166421e-16 -2.4999998065 0 -1.5308083928e-16 -1.2499999618 0 0.62500001172 -1.0825317395 0 
1.2499999648 -2.1650633774 0 1.2499999648 -2.1650633774 0 0.62500001172 -1.0825317395 0 
1.0825317395 -0.62500001172 0 2.1650633774 -1.2499999648 0 2.1650633774 -1.2499999648 0 
1.0825317395 -0.62500001172 0 1.2499999618 -2.2962127443e-16 0 2.4999998065 -4.5924252733e-16 0 
2.4999998065 -4.5924252733e-16 0 1.2499999618 -2.2962127443e-16 0 1.0825317395 0.62500001172 0 
2.1650633774 1.2499999648 0 2.1650633774 1.2499999648 0 1.0825317395 0.62500001172 0 
0.62500001172 1.0825317395 0 1.2499999648 2.1650633774 0 1.2499999648 2.1650633774 0 
0.62500001172 1.0825317395 0 3.0616167856e-16 1.2499999618 0 6.1232332841e-16 2.4999998065 0 
-0 1.2499999618 0 -0 0.83333329443 0 -0.41666668327 0.72168782361 0 
-0.62500001172 1.0825317395 0 -0.62500001172 1.0825317395 0 -0.41666668327 0.72168782361 0 
-0.72168782361 0.41666668327 0 -1.0825317395 0.62500001172 0 -1.0825317395 0.62500001172 0 
-0.72168782361 0.41666668327 0 -0.83333329443 5.1026947781e-17 0 -1.2499999618 7.654041964e-17 0 
-1.2499999618 7.654041964e-17 0 -0.83333329443 5.1026947781e-17 0 -0.72168782361 -0.41666668327 0 
-1.0825317395 -0.62500001172 0 -1.0825317395 -0.62500001172 0 -0.72168782361 -0.41666668327 0 
-0.41666668327 -0.72168782361 0 -0.62500001172 -1.0825317395 0 -0.62500001172 -1.0825317395 0 
-0.41666668327 -0.72168782361 0 -4.7212818307e-16 -0.83333329443 0 -7.0819230363e-16 -1.2499999618 0 
-1.5308083928e-16 -1.2499999618 0 -1.0205389556e-16 -0.83333329443 0 0.41666668327 -0.72168782361 0 
0.62500001172 -1.0825317395 0 0.62500001172 -1.0825317395 0 0.41666668327 -0.72168782361 0 
0.72168782361 -0.41666668327 0 1.0825317395 -0.62500001172 0 1.0825317395 -0.62500001172 0 
0.72168782361 -0.41666668327 0 0.83333329443 -1.5308083415e-16 0 1.2499999618 -2.2962127443e-16 0 
1.2499999618 -2.2962127443e-16 0 0.83333329443 -1.5308083415e-16 0 0.72168782361 0.41666668327 0 
1.0825317395 0.62500001172 0 1.0825317395 0.62500001172 0 0.72168782361 0.41666668327 0 
0.41666668327 0.72168782361 0 0.62500001172 1.0825317395 0 0.62500001172 1.0825317395 0 
0.41666668327 0.72168782361 0 2.0410779113e-16 0.83333329443 0 3.0616167856e-16 1.2499999618 0 
-0 0.83333329443 0 -0 0.62499998825 0 -0.31250000952 0.54126587608 0 
-0.41666668327 0.72168782361 0 -0.41666668327 0.72168782361 0 -0.31250000952 0.54126587608 0 
-0.54126587608 0.31250000952 0 -0.72168782361 0.41666668327 0 -0.72168782361 0.41666668327 0 
-0.54126587608 0.31250000952 0 -0.62499998825 3.8270210268e-17 0 -0.83333329443 5.1026947781e-17 0 
-0.83333329443 5.1026947781e-17 0 -0.62499998825 3.8270210268e-17 0 -0.54126587608 -0.31250000952 0 
-0.72168782361 -0.41666668327 0 -0.72168782361 -0.41666668327 0 -0.54126587608 -0.31250000952 0 
-0.31250000952 -0.54126587608 0 -0.41666668327 -0.72168782361 0 -0.41666668327 -0.72168782361 0 
-0.31250000952 -0.54126587608 0 -3.5409615596e-16 -0.62499998825 0 -4.7212818307e-16 -0.83333329443 0 
-1.0205389556e-16 -0.83333329443 0 -7.6540420537e-17 -0.62499998825 0 0.31250000952 -0.54126587608 0 
0.41666668327 -0.72168782361 0 0.41666668327 -0.72168782361 0 0.31250000952 -0.54126587608 0 
0.54126587608 -0.31250000952 0 0.72168782361 -0.41666668327 0 0.72168782361 -0.41666668327 0 
0.54126587608 -0.31250000952 0 0.62499998825 -1.1481063856e-16 0 0.83333329443 -1.5308083415e-16 0 
0.83333329443 -1.5308083415e-16 0 0.62499998825 -1.1481063856e-16 0 0.54126587608 0.31250000952 0 
0.72168782361 0.41666668327 0 0.72168782361 0.41666668327 0 0.54126587608 0.31250000952 0 
0.31250000952 0.54126587608 0 0.41666668327 0.72168782361 0 0.41666668327 0.72168782361 0 
0.31250000952 0.54126587608 0 1.5308084107e-16 0.62499998825 0 2.0410779113e-16 0.83333329443 0 
-0 0.62499998825 0 -0 0.49999999875 0 -0.25000000611 0.4330127047 0 
-0.31250000952 0.54126587608 0 -0.31250000952 0.54126587608 0 -0.25000000611 0.4330127047 0 
-0.4330127047 0.25000000611 0 -0.54126587608 0.31250000952 0 -0.54126587608 0.31250000952 0 
-0.4330127047 0.25000000611 0 -0.49999999875 3.0616171238e-17 0 -0.62499998825 3.8270210268e-17 0 
-0.62499998825 3.8270210268e-17 0 -0.49999999875 3.0616171238e-17 0 -0.4330127047 -0.25000000611 0 
-0.54126587608 -0.31250000952 0 -0.54126587608 -0.31250000952 0 -0.4330127047 -0.25000000611 0 
-0.25000000611 -0.4330127047 0 -0.31250000952 -0.54126587608 0 -0.31250000952 -0.54126587608 0 
-0.25000000611 -0.4330127047 0 -2.8327693361e-16 -0.49999999875 0 -3.5409615596e-16 -0.62499998825 0 
-7.6540420537e-17 -0.62499998825 0 -6.1232342476e-17 -0.49999999875 0 0.25000000611 -0.4330127047 0 
0.31250000952 -0.54126587608 0 0.31250000952 -0.54126587608 0 0.25000000611 -0.4330127047 0 
0.4330127047 -0.25000000611 0 0.54126587608 -0.31250000952 0 0.54126587608 -0.31250000952 0 
0.4330127047 -0.25000000611 0 0.49999999875 -9.1848507097e-17 0 0.62499998825 -1.1481063856e-16 0 
0.62499998825 -1.1481063856e-16 0 0.49999999875 -9.1848507097e-17 0 0.4330127047 0.25000000611 0 
0.54126587608 0.31250000952 0 0.54126587608 0.31250000952 0 0.4330127047 0.25000000611 0 
0.25000000611 0.4330127047 0 0.31250000952 0.54126587608 0 0.31250000952 0.54126587608 0 
0.25000000611 0.4330127047 0 1.2246468495e-16 0.49999999875 0 1.5308084107e-16 0.62499998825 0 

